version 3
run BNB-0-20240813-11:17:21-15978
attr configname BNB
attr datetime 20240813-11:17:21
attr datetimef 20240813-111721
attr experiment BNB
attr inifile omnetpp.ini
attr iterationvars ""
attr iterationvarsd ""
attr iterationvarsf ""
attr measurement ""
attr network ParcelDeliveryNetwork
attr processid 15978
attr repetition 0
attr replication #0
attr resultdir results
attr runnumber 0
attr seedset 0
config image-path ../inet/images
config network ParcelDeliveryNetwork
config description "1 drones, 10 destinations, 100 parcels, "
config *.numdrones 1
config **.drone*.mobility.typename DroneNetMob
config **.drone[*].mobility.ndst 50
config **.drone[*].mobility.nd 8
config **.drone[*].mobility.npar 30
config **.drone[*].mobility.initFromDisplayString false
config **.drone[*].mobility.changeInterval "truncnormal(2s, 0.5s)"
config **.drone[*].mobility.angleDelta "normal(0deg, 30deg)"
config **.drone[*].mobility.speed 10mps
config **.drone[*].mobility.remainingBattery 480
config **.drone[*].mobility.weightCapacity 100
config **.drone[*].mobility.parcelSelectionMethod 1
config **.drone[*].mobility.initialX 0m
config **.drone[*].mobility.initialY 0m
config **.drone[*].mobility.initialZ 0m
config *.numdst 6
config **.dst*.mobility.typename StatNodeMob
config **.dst[0].mobility.initialX 200m
config **.dst[0].mobility.initialY 100m
config **.dst[0].mobility.initialZ 0m
config **.dst[1].mobility.initialX 100m
config **.dst[1].mobility.initialY 250m
config **.dst[1].mobility.initialZ 0m
config **.dst[2].mobility.initialX 260m
config **.dst[2].mobility.initialY 220m
config **.dst[2].mobility.initialZ 0m
config **.dst[3].mobility.initialX 200m
config **.dst[3].mobility.initialY 330m
config **.dst[3].mobility.initialZ 0m
config **.dst[4].mobility.initialX 400m
config **.dst[4].mobility.initialY 300m
config **.dst[4].mobility.initialZ 0m
config **.dst[5].mobility.initialX 400m
config **.dst[5].mobility.initialY 200m
config **.dst[5].mobility.initialZ 0m
config **.dst[*].mobility.initFromDisplayString false
config sim-time-limit 10day
config **.constraintAreaMinX 0m
config **.constraintAreaMinY 0m
config **.constraintAreaMinZ 0m
config **.constraintAreaMaxX 600m
config **.constraintAreaMaxY 400m
config **.constraintAreaMaxZ 0m
config **.updateInterval 0.2s

vector 0 ParcelDeliveryNetwork.gcs.wlan[0].mac.dcf frameSequenceActive:vector ETV
attr autoWarmupFilter false
attr interpolationmode sample-hold
attr recordingmode vector
attr source warmup(count(frameSequenceStarted)-count(frameSequenceFinished))
attr title "frame sequence active"
vector 1 ParcelDeliveryNetwork.gcs.wlan[0].mac.dcf.channelAccess.pendingQueue queueLength:vector ETV
attr autoWarmupFilter false
attr interpolationmode sample-hold
attr recordingmode vector
attr source "warmup(atomic(constant0(packetPushEnded) + count(packetPushStarted) - count(packetPulled) - count(packetRemoved) - count(packetDropped)))"
attr title "queue length"
attr unit pk
vector 2 ParcelDeliveryNetwork.gcs.wlan[0].mac.dcf.channelAccess.pendingQueue queueBitLength:vector ETV
attr autoWarmupFilter false
attr interpolationmode sample-hold
attr recordingmode vector
attr source "warmup(atomic(constant0(packetPushEnded) + sum(packetLength(packetPushStarted)) - sum(packetLength(packetPulled)) - sum(packetLength(packetRemoved)) - sum(packetLength(packetDropped))))"
attr title "queue bit length"
attr unit b
vector 3 ParcelDeliveryNetwork.gcs.wlan[0].mac.dcf.channelAccess.inProgressFrames queueLength:vector ETV
attr autoWarmupFilter false
attr interpolationmode sample-hold
attr recordingmode vector
attr source "warmup(count(packetEnqueued) - count(packetDequeued))"
attr title "queue length"
vector 4 ParcelDeliveryNetwork.gcs.wlan[0].mac.dcf.channelAccess.contention backoffActive:vector ETV
attr autoWarmupFilter false
attr interpolationmode sample-hold
attr recordingmode vector
attr source warmup(count(backoffStarted)-count(backoffStopped))
attr title "backoff active"
vector 5 ParcelDeliveryNetwork.gcs.udp passedUpPk:vector(count) ETV
attr interpolationmode none
attr recordingmode vector(count)
attr source packetSentToUpper
attr title "packets passed up, count"
vector 6 ParcelDeliveryNetwork.gcs.udp droppedPkWrongPort:vector(count) ETV
attr interpolationmode none
attr recordingmode vector(count)
attr source packetDropReasonIsNoPortFound(packetDropped)
attr title "packets dropped (wrong port), count"
vector 7 ParcelDeliveryNetwork.gcs.udp droppedPkBadChecksum:vector(count) ETV
attr interpolationmode none
attr recordingmode vector(count)
attr source packetDropReasonIsIncorrectlyReceived(packetDropped)
attr title "packets dropped (checksum error), count"
vector 8 ParcelDeliveryNetwork.gcs.wlan[0].radio radioMode:vector ETV
attr interpolationmode sample-hold
attr recordingmode vector
attr source radioModeChanged
attr title "Radio mode"
vector 9 ParcelDeliveryNetwork.gcs.wlan[0].radio radioChannel:vector ETV
attr interpolationmode sample-hold
attr recordingmode vector
attr source radioChannelChanged
attr title "Radio channel"
vector 10 ParcelDeliveryNetwork.drone[0] coordX:vector ETV
attr interpolationmode linear
attr recordingmode vector
attr source xCoord(mobilityPos(mobilityStateChanged))
attr title "coord X"
vector 11 ParcelDeliveryNetwork.drone[0] coordY:vector ETV
attr interpolationmode linear
attr recordingmode vector
attr source yCoord(mobilityPos(mobilityStateChanged))
attr title "coord Y"
vector 12 ParcelDeliveryNetwork.drone[0] coordZ:vector ETV
attr interpolationmode linear
attr recordingmode vector
attr source zCoord(mobilityPos(mobilityStateChanged))
attr title "coord Z"
vector 13 ParcelDeliveryNetwork.gcs.wlan[0].radio receptionState:vector ETV
attr interpolationmode sample-hold
attr recordingmode vector
attr source receptionStateChanged
attr title "Radio reception state"
vector 14 ParcelDeliveryNetwork.gcs.wlan[0].mac.dcf.channelAccess.contention stateChanged:vector ETV
attr enum IDLE,DEFER,IFS_AND_BACKOFF
attr interpolationmode none
attr recordingmode vector
attr title "contention state changed"
attr type enum
vector 15 ParcelDeliveryNetwork.gcs.wlan[0].mac.dcf.recoveryProcedure contentionWindowChanged:vector ETV
attr interpolationmode sample-hold
attr recordingmode vector
attr title "contention window"
0	0	0	0
0	0	0	0
1	0	0	0
1	0	0	0
1	0	0	0
1	0	0	0
1	0	0	0
2	0	0	0
2	0	0	0
2	0	0	0
2	0	0	0
2	0	0	0
3	0	0	0
3	0	0	0
4	0	0	0
4	0	0	0
5	0	0	0
6	0	0	0
7	0	0	0
8	0	0	0
8	0	0	0
8	0	0	2
9	0	0	0
10	0	0	0
10	1	0.2	0
10	2	0.4	0
10	3	0.6	0
10	4	0.8	0
10	5	1	0
10	6	1.2	0
10	7	1.4	0
10	8	1.6	0
10	9	1.8	0
10	10	2	0
10	11	2.2	0
10	12	2.4	0
10	13	2.426285337517	0
10	14	2.626285337517	0
10	15	2.826285337517	0
10	16	3.026285337517	0
10	17	3.226285337517	0
10	18	3.426285337517	0
10	19	3.626285337517	0
10	20	3.826285337517	0
10	21	4.026285337517	0
10	22	4.226285337517	0
10	23	4.426285337517	0
10	24	4.626285337517	0
10	25	4.786228692172	0
10	26	4.986228692172	1.2303888524014
10	27	5.186228692172	2.4607777048029
10	28	5.386228692172	3.6911665572043
10	29	5.586228692172	4.9215554096058
10	30	5.786228692172	6.1519442620072
10	31	5.986228692172	7.3823331144087
10	32	6.186228692172	8.6127219668101
10	33	6.386228692172	9.8431108192116
10	34	6.411731065748	10
10	35	6.611731065748	20.537687988162
10	36	6.811731065748	31.075375976323
10	37	7.011731065748	41.613063964485
10	38	7.211731065748	52.150751952647
10	39	7.411731065748	62.688439940809
10	40	7.611731065748	73.22612792897
10	41	7.811731065748	83.763815917132
10	42	7.873152206448	87
10	43	8.073152206448	86.457157749239
10	44	8.273152206448	85.914315498477
10	45	8.473152206448	85.371473247716
10	46	8.673152206448	84.828630996954
10	47	8.873152206448	84.285788746193
10	48	9.073152206448	83.742946495431
10	49	9.273152206448	83.20010424467
10	50	9.473152206448	82.657261993908
10	51	9.673152206448	82.114419743147
10	52	9.715308005112	82
10	53	9.915308005112	88.626141422144
10	54	10.115308005112	95.252282844288
10	55	10.315308005112	101.87842426643
10	56	10.515308005112	108.50456568858
10	57	10.715308005112	115.13070711072
10	58	10.915308005112	121.75684853286
10	59	11.115308005112	128.38298995501
10	60	11.315308005112	135.00913137715
10	61	11.515308005112	141.63527279929
10	62	11.715308005112	148.26141422144
10	63	11.915308005112	154.88755564358
10	64	12.115308005112	161.51369706573
10	65	12.315308005112	168.13983848787
10	66	12.515308005112	174.76597991001
10	67	12.703472419145	181
10	68	12.903472419145	186.72262115018
10	69	13.103472419145	192.44524230037
10	70	13.303472419145	198.16786345055
10	71	13.503472419145	203.89048460073
10	72	13.703472419145	209.61310575092
10	73	13.903472419145	215.3357269011
10	74	14.103472419145	221.05834805128
10	75	14.303472419145	226.78096920147
10	76	14.503472419145	232.50359035165
10	77	14.520821449784	233
10	78	14.720821449784	221.63261886347
10	79	14.920821449784	210.26523772695
10	80	15.120821449784	198.89785659042
10	81	15.320821449784	187.53047545389
10	82	15.520821449784	176.16309431737
10	83	15.720821449784	164.79571318084
10	84	15.920821449784	153.42833204431
10	85	16.033922822336	147
10	86	16.233922822336	162.74509890002
10	87	16.433922822336	178.49019780004
10	88	16.633922822336	194.23529670006
10	89	16.833922822336	209.98039560007
10	90	17.033922822336	225.72549450009
10	91	17.233922822336	241.47059340011
10	92	17.433922822336	257.21569230013
10	93	17.633922822336	272.96079120015
10	94	17.833922822336	288.70589010017
10	95	18.033922822336	304.45098900018
10	96	18.233922822336	320.1960879002
10	97	18.371158061929	331
10	98	18.571158061929	330.56877506219
10	99	18.771158061929	330.13755012438
10	100	18.971158061929	329.70632518657
10	101	19.171158061929	329.27510024876
10	102	19.371158061929	328.84387531096
10	103	19.571158061929	328.41265037315
10	104	19.762543270421	328
10	105	19.962543270421	330.67796761403
10	106	20.162543270421	333.35593522806
10	107	20.362543270421	336.03390284209
10	108	20.562543270421	338.71187045612
10	109	20.762543270421	341.38983807015
10	110	20.962543270421	344.06780568418
10	111	21.162543270421	346.7457732982
10	112	21.256213312973	348
10	113	21.456213312973	349.15971699444
10	114	21.656213312973	350.31943398888
10	115	21.856213312973	351.47915098332
10	116	22.056213312973	352.63886797777
10	117	22.256213312973	353.79858497221
10	118	22.456213312973	354.95830196665
10	119	22.656213312973	356.11801896109
10	120	22.856213312973	357.27773595553
10	121	23.056213312973	358.43745294997
10	122	23.256213312973	359.59716994442
10	123	23.456213312973	360.75688693886
10	124	23.656213312973	361.9166039333
10	125	23.843051321193	363
10	126	24.043051321193	367.00038721413
10	127	24.243051321193	371.00077442826
10	128	24.443051321193	375.00116164239
10	129	24.643051321193	379.00154885651
10	130	24.843051321193	383.00193607064
10	131	25.043051321193	387.00232328477
10	132	25.243051321193	391.0027104989
10	133	25.443051321193	395.00309771303
10	134	25.643051321193	399.00348492716
10	135	25.742867412285	401
10	136	25.942867412285	403.2429492056
10	137	26.142867412285	405.48589841121
10	138	26.342867412285	407.72884761681
10	139	26.542867412285	409.97179682242
10	140	26.742867412285	412.21474602802
10	141	26.942867412285	414.45769523362
10	142	27.142867412285	416.70064443923
10	143	27.342867412285	418.94359364483
10	144	27.542867412285	421.18654285044
10	145	27.615402015167	422
10	146	27.815402015167	428.31588014889
10	147	28.015402015167	434.63176029778
10	148	28.215402015167	440.94764044667
10	149	28.415402015167	447.26352059556
10	150	28.615402015167	453.57940074445
10	151	28.815402015167	459.89528089334
10	152	29.015402015167	466.21116104223
10	153	29.215402015167	472.52704119112
10	154	29.415402015167	478.84292134001
10	155	29.547040949472	483
10	156	29.747040949472	489.11404223245
10	157	29.947040949472	495.2280844649
10	158	30.147040949472	501.34212669735
10	159	30.347040949472	507.4561689298
10	160	30.547040949472	513.57021116225
10	161	30.747040949472	519.68425339471
10	162	30.947040949472	525.79829562716
10	163	31.147040949472	531.91233785961
10	164	31.347040949472	538.02638009206
10	165	31.547040949472	544.14042232451
10	166	31.747040949472	550.25446455696
10	167	31.947040949472	556.36850678941
10	168	32.147040949472	562.48254902186
10	169	32.347040949472	568.59659125431
10	170	32.458371837166	572
10	171	32.658371837166	570.98103703164
10	172	32.858371837166	569.96207406328
10	173	33.058371837166	568.94311109492
10	174	33.258371837166	567.92414812656
10	175	33.458371837166	566.9051851582
10	176	33.658371837166	565.88622218984
10	177	33.858371837166	564.86725922149
10	178	34.058371837166	563.84829625313
10	179	34.258371837166	562.82933328477
10	180	34.458371837166	561.81037031641
10	181	34.658371837166	560.79140734805
10	182	34.858371837166	559.77244437969
10	183	35.009985664886	559
10	184	35.209985664886	556.99391895301
10	185	35.409985664886	554.98783790601
10	186	35.609985664886	552.98175685902
10	187	35.809985664886	550.97567581203
10	188	36.009985664886	548.96959476503
10	189	36.209985664886	546.96351371804
10	190	36.409985664886	544.95743267105
10	191	36.609985664886	542.95135162405
10	192	36.809985664886	540.94527057706
10	193	37.009985664886	538.93918953006
10	194	37.209985664886	536.93310848307
10	195	37.409985664886	534.92702743608
10	196	37.609985664886	532.92094638908
10	197	37.701801136695	532
10	198	37.901801136695	526.94021624234
10	199	38.101801136695	521.88043248469
10	200	38.301801136695	516.82064872703
10	201	38.334239231536	516
10	202	38.534239231536	516.96418635863
10	203	38.734239231536	517.92837271725
10	204	38.934239231536	518.89255907588
10	205	39.134239231536	519.8567454345
10	206	39.334239231536	520.82093179313
10	207	39.534239231536	521.78511815176
10	208	39.734239231536	522.74930451038
10	209	39.934239231536	523.71349086901
10	210	40.134239231536	524.67767722763
10	211	40.334239231536	525.64186358626
10	212	40.534239231536	526.60604994488
10	213	40.615955810824	527
10	214	40.815955810824	475.21524433292
10	215	41.015955810824	423.43048866584
10	216	41.215955810824	371.64573299875
10	217	41.415955810824	319.86097733167
10	218	41.615955810824	268.07622166459
10	219	41.815955810824	216.29146599751
10	220	42.015955810824	164.50671033043
10	221	42.064258482795	152
10	222	42.264258482795	133.27732593961
10	223	42.464258482795	114.55465187921
10	224	42.664258482795	95.831977818819
10	225	42.864258482795	77.109303758425
10	226	43.064258482795	58.386629698032
10	227	43.264258482795	39.663955637638
10	228	43.464258482795	20.941281577244
10	229	43.664258482795	2.2186075168506
10	230	43.687958169172	0
10	231	43.887958169172	0
10	232	44.087958169172	0
10	233	44.287958169172	0
10	234	44.487958169172	0
10	235	44.687958169172	0
10	236	44.887958169172	0
10	237	45.087958169172	0
10	238	45.287958169172	0
10	239	45.487958169172	0
10	240	45.641929219663	0
10	241	45.841929219663	0
10	242	46.041929219663	0
10	243	46.241929219663	0
10	244	46.441929219663	0
10	245	46.641929219663	0
10	246	46.841929219663	0
10	247	47.020101479411	0
10	248	47.220101479411	9.4825741703797
10	249	47.420101479411	18.965148340759
10	250	47.620101479411	28.447722511139
10	251	47.820101479411	37.930296681519
10	252	48.020101479411	47.412870851899
10	253	48.220101479411	56.895445022278
10	254	48.420101479411	66.378019192658
10	255	48.620101479411	75.860593363038
10	256	48.749589665354	82
10	257	48.949589665354	92.556436169204
10	258	49.149589665354	103.11287233841
10	259	49.349589665354	113.66930850761
10	260	49.549589665354	124.22574467681
10	261	49.749589665354	134.78218084602
10	262	49.949589665354	145.33861701522
10	263	50.149589665354	155.89505318442
10	264	50.349589665354	166.45148935363
10	265	50.549589665354	177.00792552283
10	266	50.749589665354	187.56436169204
10	267	50.814680539829	191
10	268	51.014680539829	203.99542167126
10	269	51.214680539829	216.99084334252
10	270	51.414680539829	229.98626501378
10	271	51.614680539829	242.98168668505
10	272	51.814680539829	255.97710835631
10	273	52.014680539829	268.97253002757
10	274	52.214680539829	281.96795169883
10	275	52.414680539829	294.96337337009
10	276	52.614680539829	307.95879504135
10	277	52.814680539829	320.95421671261
10	278	53.014680539829	333.94963838388
10	279	53.214680539829	346.94506005514
10	280	53.292476244697	352
10	281	53.492476244697	361.39833707195
10	282	53.692476244697	370.7966741439
10	283	53.892476244697	380.19501121586
10	284	54.092476244697	389.59334828781
10	285	54.292476244697	398.99168535976
10	286	54.492476244697	408.39002243171
10	287	54.692476244697	417.78835950367
10	288	54.782101472311	422
10	289	54.982101472311	427.66742516906
10	290	55.182101472311	433.33485033812
10	291	55.382101472311	439.00227550717
11	0	0	0
11	1	0.2	0
11	2	0.4	0
11	3	0.6	0
11	4	0.8	0
11	5	1	0
11	6	1.2	0
11	7	1.4	0
11	8	1.6	0
11	9	1.8	0
11	10	2	0
11	11	2.2	0
11	12	2.4	0
11	13	2.426285337517	0
11	14	2.626285337517	0
11	15	2.826285337517	0
11	16	3.026285337517	0
11	17	3.226285337517	0
11	18	3.426285337517	0
11	19	3.626285337517	0
11	20	3.826285337517	0
11	21	4.026285337517	0
11	22	4.226285337517	0
11	23	4.426285337517	0
11	24	4.626285337517	0
11	25	4.786228692172	0
11	26	4.986228692172	10.212227474932
11	27	5.186228692172	20.424454949864
11	28	5.386228692172	30.636682424796
11	29	5.586228692172	40.848909899728
11	30	5.786228692172	51.06113737466
11	31	5.986228692172	61.273364849592
11	32	6.186228692172	71.485592324524
11	33	6.386228692172	81.697819799456
11	34	6.411731065748	83
11	35	6.611731065748	94.632512714205
11	36	6.811731065748	106.26502542841
11	37	7.011731065748	117.89753814261
11	38	7.211731065748	129.53005085682
11	39	7.411731065748	141.16256357102
11	40	7.611731065748	152.79507628523
11	41	7.811731065748	164.42758899943
11	42	7.873152206448	168
11	43	8.073152206448	170.93134815411
11	44	8.273152206448	173.86269630822
11	45	8.473152206448	176.79404446234
11	46	8.673152206448	179.72539261645
11	47	8.873152206448	182.65674077056
11	48	9.073152206448	185.58808892467
11	49	9.273152206448	188.51943707878
11	50	9.473152206448	191.45078523289
11	51	9.673152206448	194.38213338701
11	52	9.715308005112	195
11	53	9.915308005112	192.72435547118
11	54	10.115308005112	190.44871094237
11	55	10.315308005112	188.17306641355
11	56	10.515308005112	185.89742188473
11	57	10.715308005112	183.62177735591
11	58	10.915308005112	181.3461328271
11	59	11.115308005112	179.07048829828
11	60	11.315308005112	176.79484376946
11	61	11.515308005112	174.51919924065
11	62	11.715308005112	172.24355471183
11	63	11.915308005112	169.96791018301
11	64	12.115308005112	167.6922656542
11	65	12.315308005112	165.41662112538
11	66	12.515308005112	163.14097659656
11	67	12.703472419145	161
11	68	12.903472419145	151.20551380065
11	69	13.103472419145	141.4110276013
11	70	13.303472419145	131.61654140194
11	71	13.503472419145	121.82205520259
11	72	13.703472419145	112.02756900324
11	73	13.903472419145	102.23308280389
11	74	14.103472419145	92.438596604534
11	75	14.303472419145	82.644110405181
11	76	14.503472419145	72.849624205829
11	77	14.520821449784	72
11	78	14.720821449784	66.051951730887
11	79	14.920821449784	60.103903461775
11	80	15.120821449784	54.155855192662
11	81	15.320821449784	48.207806923549
11	82	15.520821449784	42.259758654436
11	83	15.720821449784	36.311710385324
11	84	15.920821449784	30.363662116211
11	85	16.033922822336	27
11	86	16.233922822336	32.562127328811
11	87	16.433922822336	38.124254657622
11	88	16.633922822336	43.686381986433
11	89	16.833922822336	49.248509315243
11	90	17.033922822336	54.810636644054
11	91	17.233922822336	60.372763972865
11	92	17.433922822336	65.934891301676
11	93	17.633922822336	71.497018630487
11	94	17.833922822336	77.059145959298
11	95	18.033922822336	82.621273288109
11	96	18.233922822336	88.183400616919
11	97	18.371158061929	92
11	98	18.571158061929	95.44979950247
11	99	18.771158061929	98.89959900494
11	100	18.971158061929	102.34939850741
11	101	19.171158061929	105.79919800988
11	102	19.371158061929	109.24899751235
11	103	19.571158061929	112.69879701482
11	104	19.762543270421	116
11	105	19.962543270421	122.82881741577
11	106	20.162543270421	129.65763483155
11	107	20.362543270421	136.48645224732
11	108	20.562543270421	143.3152696631
11	109	20.762543270421	150.14408707887
11	110	20.962543270421	156.97290449465
11	111	21.162543270421	163.80172191042
11	112	21.256213312973	167
11	113	21.456213312973	168.39166039333
11	114	21.656213312973	169.78332078666
11	115	21.856213312973	171.17498117999
11	116	22.056213312973	172.56664157332
11	117	22.256213312973	173.95830196665
11	118	22.456213312973	175.34996235998
11	119	22.656213312973	176.74162275331
11	120	22.856213312973	178.13328314664
11	121	23.056213312973	179.52494353997
11	122	23.256213312973	180.9166039333
11	123	23.456213312973	182.30826432663
11	124	23.656213312973	183.69992471996
11	125	23.843051321193	185
11	126	24.043051321193	187.84238038899
11	127	24.243051321193	190.68476077797
11	128	24.443051321193	193.52714116696
11	129	24.643051321193	196.36952155594
11	130	24.843051321193	199.21190194493
11	131	25.043051321193	202.05428233392
11	132	25.243051321193	204.8966627229
11	133	25.443051321193	207.73904311189
11	134	25.643051321193	210.58142350087
11	135	25.742867412285	212
11	136	25.942867412285	219.0492689319
11	137	26.142867412285	226.0985378638
11	138	26.342867412285	233.14780679569
11	139	26.542867412285	240.19707572759
11	140	26.742867412285	247.24634465949
11	141	26.942867412285	254.29561359139
11	142	27.142867412285	261.34488252329
11	143	27.342867412285	268.39415145518
11	144	27.542867412285	275.44342038708
11	145	27.615402015167	278
11	146	27.815402015167	280.69201448969
11	147	28.015402015167	283.38402897938
11	148	28.215402015167	286.07604346907
11	149	28.415402015167	288.76805795876
11	150	28.615402015167	291.46007244845
11	151	28.815402015167	294.15208693814
11	152	29.015402015167	296.84410142784
11	153	29.215402015167	299.53611591753
11	154	29.415402015167	302.22813040722
11	155	29.547040949472	304
11	156	29.747040949472	306.40439863074
11	157	29.947040949472	308.80879726148
11	158	30.147040949472	311.21319589222
11	159	30.347040949472	313.61759452296
11	160	30.547040949472	316.0219931537
11	161	30.747040949472	318.42639178443
11	162	30.947040949472	320.83079041517
11	163	31.147040949472	323.23518904591
11	164	31.347040949472	325.63958767665
11	165	31.547040949472	328.04398630739
11	166	31.747040949472	330.44838493813
11	167	31.947040949472	332.85278356887
11	168	32.147040949472	335.25718219961
11	169	32.347040949472	337.66158083035
11	170	32.458371837166	339
11	171	32.658371837166	325.04804551016
11	172	32.858371837166	311.09609102032
11	173	33.058371837166	297.14413653048
11	174	33.258371837166	283.19218204063
11	175	33.458371837166	269.24022755079
11	176	33.658371837166	255.28827306095
11	177	33.858371837166	241.33631857111
11	178	34.058371837166	227.38436408127
11	179	34.258371837166	213.43240959143
11	180	34.458371837166	199.48045510158
11	181	34.658371837166	185.52850061174
11	182	34.858371837166	171.5765461219
11	183	35.009985664886	161
11	184	35.209985664886	160.40560561571
11	185	35.409985664886	159.81121123141
11	186	35.609985664886	159.21681684712
11	187	35.809985664886	158.62242246282
11	188	36.009985664886	158.02802807853
11	189	36.209985664886	157.43363369423
11	190	36.409985664886	156.83923930994
11	191	36.609985664886	156.24484492564
11	192	36.809985664886	155.65045054135
11	193	37.009985664886	155.05605615706
11	194	37.209985664886	154.46166177276
11	195	37.409985664886	153.86726738847
11	196	37.609985664886	153.27287300417
11	197	37.701801136695	153
11	198	37.901801136695	120.74387854494
11	199	38.101801136695	88.487757089874
11	200	38.301801136695	56.231635634811
11	201	38.334239231536	51
11	202	38.534239231536	46.617334733519
11	203	38.734239231536	42.234669467037
11	204	38.934239231536	37.852004200556
11	205	39.134239231536	33.469338934075
11	206	39.334239231536	29.086673667594
11	207	39.534239231536	24.704008401112
11	208	39.734239231536	20.321343134631
11	209	39.934239231536	15.93867786815
11	210	40.134239231536	11.556012601668
11	211	40.334239231536	7.1733473351872
11	212	40.534239231536	2.7906820687059
11	213	40.615955810824	1
11	214	40.815955810824	51.265736167514
11	215	41.015955810824	101.53147233503
11	216	41.215955810824	151.79720850254
11	217	41.415955810824	202.06294467006
11	218	41.615955810824	252.32868083757
11	219	41.815955810824	302.59441700508
11	220	42.015955810824	352.8601531726
11	221	42.064258482795	365
11	222	42.264258482795	320.04094715761
11	223	42.464258482795	275.08189431521
11	224	42.664258482795	230.12284147282
11	225	42.864258482795	185.16378863043
11	226	43.064258482795	140.20473578804
11	227	43.264258482795	95.245682945644
11	228	43.464258482795	50.286630103251
11	229	43.664258482795	5.3275772608584
11	230	43.687958169172	0
11	231	43.887958169172	0
11	232	44.087958169172	0
11	233	44.287958169172	0
11	234	44.487958169172	0
11	235	44.687958169172	0
11	236	44.887958169172	0
11	237	45.087958169172	0
11	238	45.287958169172	0
11	239	45.487958169172	0
11	240	45.641929219663	0
11	241	45.841929219663	0
11	242	46.041929219663	0
11	243	46.241929219663	0
11	244	46.441929219663	0
11	245	46.641929219663	0
11	246	46.841929219663	0
11	247	47.020101479411	0
11	248	47.220101479411	22.550023941757
11	249	47.420101479411	45.100047883513
11	250	47.620101479411	67.65007182527
11	251	47.820101479411	90.200095767027
11	252	48.020101479411	112.75011970878
11	253	48.220101479411	135.30014365054
11	254	48.420101479411	157.8501675923
11	255	48.620101479411	180.40019153405
11	256	48.749589665354	195
11	257	48.949589665354	205.45958813095
11	258	49.149589665354	215.91917626191
11	259	49.349589665354	226.37876439286
11	260	49.549589665354	236.83835252382
11	261	49.749589665354	247.29794065477
11	262	49.949589665354	257.75752878572
11	263	50.149589665354	268.21711691668
11	264	50.349589665354	278.67670504763
11	265	50.549589665354	289.13629317859
11	266	50.749589665354	299.59588130954
11	267	50.814680539829	303
11	268	51.014680539829	296.78479833114
11	269	51.214680539829	290.56959666227
11	270	51.414680539829	284.35439499341
11	271	51.614680539829	278.13919332454
11	272	51.814680539829	271.92399165568
11	273	52.014680539829	265.70878998682
11	274	52.214680539829	259.49358831795
11	275	52.414680539829	253.27838664909
11	276	52.614680539829	247.06318498022
11	277	52.814680539829	240.84798331136
11	278	53.014680539829	234.63278164249
11	279	53.214680539829	228.41757997363
11	280	53.292476244697	226
11	281	53.492476244697	232.98162182488
11	282	53.692476244697	239.96324364976
11	283	53.892476244697	246.94486547464
11	284	54.092476244697	253.92648729952
11	285	54.292476244697	260.90810912439
11	286	54.492476244697	267.88973094927
11	287	54.692476244697	274.87135277415
11	288	54.782101472311	278
11	289	54.982101472311	280.41562384255
11	290	55.182101472311	282.8312476851
11	291	55.382101472311	285.24687152765
12	0	0	0
12	1	0.2	0
12	2	0.4	0
12	3	0.6	0
12	4	0.8	0
12	5	1	0
12	6	1.2	0
12	7	1.4	0
12	8	1.6	0
12	9	1.8	0
12	10	2	0
12	11	2.2	0
12	12	2.4	0
12	13	2.426285337517	0
12	14	2.626285337517	0
12	15	2.826285337517	0
12	16	3.026285337517	0
12	17	3.226285337517	0
12	18	3.426285337517	0
12	19	3.626285337517	0
12	20	3.826285337517	0
12	21	4.026285337517	0
12	22	4.226285337517	0
12	23	4.426285337517	0
12	24	4.626285337517	0
12	25	4.786228692172	0
12	26	4.986228692172	0
12	27	5.186228692172	0
12	28	5.386228692172	0
12	29	5.586228692172	0
12	30	5.786228692172	0
12	31	5.986228692172	0
12	32	6.186228692172	0
12	33	6.386228692172	0
12	34	6.411731065748	0
12	35	6.611731065748	0
12	36	6.811731065748	0
12	37	7.011731065748	0
12	38	7.211731065748	0
12	39	7.411731065748	0
12	40	7.611731065748	0
12	41	7.811731065748	0
12	42	7.873152206448	0
12	43	8.073152206448	0
12	44	8.273152206448	0
12	45	8.473152206448	0
12	46	8.673152206448	0
12	47	8.873152206448	0
12	48	9.073152206448	0
12	49	9.273152206448	0
12	50	9.473152206448	0
12	51	9.673152206448	0
12	52	9.715308005112	0
12	53	9.915308005112	0
12	54	10.115308005112	0
12	55	10.315308005112	0
12	56	10.515308005112	0
12	57	10.715308005112	0
12	58	10.915308005112	0
12	59	11.115308005112	0
12	60	11.315308005112	0
12	61	11.515308005112	0
12	62	11.715308005112	0
12	63	11.915308005112	0
12	64	12.115308005112	0
12	65	12.315308005112	0
12	66	12.515308005112	0
12	67	12.703472419145	0
12	68	12.903472419145	0
12	69	13.103472419145	0
12	70	13.303472419145	0
12	71	13.503472419145	0
12	72	13.703472419145	0
12	73	13.903472419145	0
12	74	14.103472419145	0
12	75	14.303472419145	0
12	76	14.503472419145	0
12	77	14.520821449784	0
12	78	14.720821449784	0
12	79	14.920821449784	0
12	80	15.120821449784	0
12	81	15.320821449784	0
12	82	15.520821449784	0
12	83	15.720821449784	0
12	84	15.920821449784	0
12	85	16.033922822336	0
12	86	16.233922822336	0
12	87	16.433922822336	0
12	88	16.633922822336	0
12	89	16.833922822336	0
12	90	17.033922822336	0
12	91	17.233922822336	0
12	92	17.433922822336	0
12	93	17.633922822336	0
12	94	17.833922822336	0
12	95	18.033922822336	0
12	96	18.233922822336	0
12	97	18.371158061929	0
12	98	18.571158061929	0
12	99	18.771158061929	0
12	100	18.971158061929	0
12	101	19.171158061929	0
12	102	19.371158061929	0
12	103	19.571158061929	0
12	104	19.762543270421	0
12	105	19.962543270421	0
12	106	20.162543270421	0
12	107	20.362543270421	0
12	108	20.562543270421	0
12	109	20.762543270421	0
12	110	20.962543270421	0
12	111	21.162543270421	0
12	112	21.256213312973	0
12	113	21.456213312973	0
12	114	21.656213312973	0
12	115	21.856213312973	0
12	116	22.056213312973	0
12	117	22.256213312973	0
12	118	22.456213312973	0
12	119	22.656213312973	0
12	120	22.856213312973	0
12	121	23.056213312973	0
12	122	23.256213312973	0
12	123	23.456213312973	0
12	124	23.656213312973	0
12	125	23.843051321193	0
12	126	24.043051321193	0
12	127	24.243051321193	0
12	128	24.443051321193	0
12	129	24.643051321193	0
12	130	24.843051321193	0
12	131	25.043051321193	0
12	132	25.243051321193	0
12	133	25.443051321193	0
12	134	25.643051321193	0
12	135	25.742867412285	0
12	136	25.942867412285	0
12	137	26.142867412285	0
12	138	26.342867412285	0
12	139	26.542867412285	0
12	140	26.742867412285	0
12	141	26.942867412285	0