version 3
run CNPF-36-20240912-08:19:28-54225
attr configname CNPF
attr datetime 20240912-08:19:28
attr datetimef 20240912-081928
attr experiment CNPF
attr inifile omnetpp.ini
attr iterationvars $0=30
attr iterationvarsd 30
attr iterationvarsf 30-
attr measurement $0=30
attr network ParcelDeliveryNetwork
attr processid 54225
attr repetition 6
attr replication #6
attr resultdir results
attr runnumber 36
attr seedset 36
config image-path ../inet/images
config network ParcelDeliveryNetwork
config description "1 drones, 30 destinations, 30 parcels, "
config *.numdrones 1
config **.drone*.mobility.typename DroneNetMob
config **.drone[*].mobility.ndst 30
config **.drone[*].mobility.nd 8
config **.drone[*].mobility.npar 30
config **.drone[*].mobility.initFromDisplayString false
config **.drone[*].mobility.changeInterval "truncnormal(2s, 0.5s)"
config **.drone[*].mobility.angleDelta "normal(0deg, 30deg)"
config **.drone[*].mobility.speed 10mps
config **.drone[*].mobility.remainingBattery 480
config **.drone[*].mobility.weightCapacity 100
config **.drone[*].mobility.parcelSelectionMethod 0
config **.drone[*].mobility.initialX 0m
config **.drone[*].mobility.initialY 0m
config **.drone[*].mobility.initialZ 0m
config repeat 10
config sim-time-limit 80second
config **.constraintAreaMinX 0m
config **.constraintAreaMinY 0m
config **.constraintAreaMinZ 0m
config **.constraintAreaMaxX 600m
config **.constraintAreaMaxY 400m
config **.constraintAreaMaxZ 0m
config **.updateInterval 0.2s

vector 0 ParcelDeliveryNetwork.gcs.wlan[0].mac.dcf frameSequenceActive:vector ETV
attr autoWarmupFilter false
attr interpolationmode sample-hold
attr recordingmode vector
attr source warmup(count(frameSequenceStarted)-count(frameSequenceFinished))
attr title "frame sequence active"
vector 1 ParcelDeliveryNetwork.gcs.wlan[0].mac.dcf.channelAccess.pendingQueue queueLength:vector ETV
attr autoWarmupFilter false
attr interpolationmode sample-hold
attr recordingmode vector
attr source "warmup(atomic(constant0(packetPushEnded) + count(packetPushStarted) - count(packetPulled) - count(packetRemoved) - count(packetDropped)))"
attr title "queue length"
attr unit pk
vector 2 ParcelDeliveryNetwork.gcs.wlan[0].mac.dcf.channelAccess.pendingQueue queueBitLength:vector ETV
attr autoWarmupFilter false
attr interpolationmode sample-hold
attr recordingmode vector
attr source "warmup(atomic(constant0(packetPushEnded) + sum(packetLength(packetPushStarted)) - sum(packetLength(packetPulled)) - sum(packetLength(packetRemoved)) - sum(packetLength(packetDropped))))"
attr title "queue bit length"
attr unit b
vector 3 ParcelDeliveryNetwork.gcs.wlan[0].mac.dcf.channelAccess.inProgressFrames queueLength:vector ETV
attr autoWarmupFilter false
attr interpolationmode sample-hold
attr recordingmode vector
attr source "warmup(count(packetEnqueued) - count(packetDequeued))"
attr title "queue length"
vector 4 ParcelDeliveryNetwork.gcs.wlan[0].mac.dcf.channelAccess.contention backoffActive:vector ETV
attr autoWarmupFilter false
attr interpolationmode sample-hold
attr recordingmode vector
attr source warmup(count(backoffStarted)-count(backoffStopped))
attr title "backoff active"
vector 5 ParcelDeliveryNetwork.gcs.udp passedUpPk:vector(count) ETV
attr interpolationmode none
attr recordingmode vector(count)
attr source packetSentToUpper
attr title "packets passed up, count"
vector 6 ParcelDeliveryNetwork.gcs.udp droppedPkWrongPort:vector(count) ETV
attr interpolationmode none
attr recordingmode vector(count)
attr source packetDropReasonIsNoPortFound(packetDropped)
attr title "packets dropped (wrong port), count"
vector 7 ParcelDeliveryNetwork.gcs.udp droppedPkBadChecksum:vector(count) ETV
attr interpolationmode none
attr recordingmode vector(count)
attr source packetDropReasonIsIncorrectlyReceived(packetDropped)
attr title "packets dropped (checksum error), count"
vector 8 ParcelDeliveryNetwork.gcs.wlan[0].radio radioMode:vector ETV
attr interpolationmode sample-hold
attr recordingmode vector
attr source radioModeChanged
attr title "Radio mode"
vector 9 ParcelDeliveryNetwork.gcs.wlan[0].radio radioChannel:vector ETV
attr interpolationmode sample-hold
attr recordingmode vector
attr source radioChannelChanged
attr title "Radio channel"
vector 10 ParcelDeliveryNetwork.drone[0] coordX:vector ETV
attr interpolationmode linear
attr recordingmode vector
attr source xCoord(mobilityPos(mobilityStateChanged))
attr title "coord X"
vector 11 ParcelDeliveryNetwork.drone[0] coordY:vector ETV
attr interpolationmode linear
attr recordingmode vector
attr source yCoord(mobilityPos(mobilityStateChanged))
attr title "coord Y"
vector 12 ParcelDeliveryNetwork.drone[0] coordZ:vector ETV
attr interpolationmode linear
attr recordingmode vector
attr source zCoord(mobilityPos(mobilityStateChanged))
attr title "coord Z"
vector 13 ParcelDeliveryNetwork.gcs.wlan[0].radio receptionState:vector ETV
attr interpolationmode sample-hold
attr recordingmode vector
attr source receptionStateChanged
attr title "Radio reception state"
vector 14 ParcelDeliveryNetwork.gcs.wlan[0].mac.dcf.channelAccess.contention stateChanged:vector ETV
attr enum IDLE,DEFER,IFS_AND_BACKOFF
attr interpolationmode none
attr recordingmode vector
attr title "contention state changed"
attr type enum
vector 15 ParcelDeliveryNetwork.gcs.wlan[0].mac.dcf.recoveryProcedure contentionWindowChanged:vector ETV
attr interpolationmode sample-hold
attr recordingmode vector
attr title "contention window"
0	0	0	0
0	0	0	0
1	0	0	0
1	0	0	0
1	0	0	0
1	0	0	0
1	0	0	0
2	0	0	0
2	0	0	0
2	0	0	0
2	0	0	0
2	0	0	0
3	0	0	0
3	0	0	0
4	0	0	0
4	0	0	0
5	0	0	0
6	0	0	0
7	0	0	0
8	0	0	0
8	0	0	0
8	0	0	2
9	0	0	0
10	0	0	0
10	1	0.2	0
10	2	0.4	0
10	3	0.6	0
10	4	0.8	0
10	5	1	0
10	6	1.2	0
10	7	1.4	0
10	8	1.6	0
10	9	1.8	0
10	10	2	0
10	11	2.2	0
10	12	2.4	0
10	13	2.558081669772	0
10	14	2.758081669772	0
10	15	2.958081669772	0
10	16	3.158081669772	0
10	17	3.358081669772	0
10	18	3.558081669772	0
10	19	3.758081669772	0
10	20	3.958081669772	0
10	21	4.158081669772	0
10	22	4.358081669772	0
10	23	4.558081669772	0
10	24	4.739320774541	0
10	25	4.939320774541	0
10	26	5.139320774541	0
10	27	5.339320774541	0
10	28	5.539320774541	0
10	29	5.739320774541	0
10	30	5.939320774541	0
10	31	6.139320774541	0
10	32	6.339320774541	0
10	33	6.539320774541	0
10	34	6.739320774541	0
10	35	6.939320774541	0
10	36	7.139320774541	0
10	37	7.339320774541	0
10	38	7.501723309589	0
10	39	7.701723309589	0
10	40	7.901723309589	0
10	41	8.101723309589	0
10	42	8.301723309589	0
10	43	8.501723309589	0
10	44	8.701723309589	0
10	45	8.901723309589	0
10	46	9.101723309589	0
10	47	9.301723309589	0
10	48	9.501723309589	0
10	49	9.701723309589	0
10	50	9.901723309589	0
10	51	9.920125553354	0
10	52	10.120125553354	0
10	53	10.320125553354	0
10	54	10.520125553354	0
10	55	10.720125553354	0
10	56	10.920125553354	0
10	57	11.120125553354	0
10	58	11.320125553354	0
10	59	11.520125553354	0
10	60	11.59967023524	0
10	61	11.79967023524	0
10	62	11.99967023524	0
10	63	12.19967023524	0
10	64	12.39967023524	0
10	65	12.59967023524	0
10	66	12.79967023524	0
10	67	12.99967023524	0
10	68	13.19967023524	0
10	69	13.270879792954	0
10	70	13.470879792954	0
10	71	13.670879792954	0
10	72	13.870879792954	0
10	73	14.070879792954	0
10	74	14.270879792954	0
10	75	14.470879792954	0
10	76	14.670879792954	0
10	77	14.870879792954	0
10	78	15.070879792954	0
10	79	15.270879792954	0
10	80	15.470879792954	0
10	81	15.511025979535	0
10	82	15.711025979535	0
10	83	15.911025979535	0
10	84	16.111025979535	0
10	85	16.311025979535	0
10	86	16.511025979535	0
10	87	16.711025979535	0
10	88	16.911025979535	0
10	89	17.111025979535	0
10	90	17.311025979535	0
10	91	17.511025979535	0
10	92	17.619884552398	0
10	93	17.819884552398	0
10	94	18.019884552398	0
10	95	18.219884552398	0
10	96	18.419884552398	0
10	97	18.619884552398	0
10	98	18.819884552398	0
10	99	19.019884552398	0
10	100	19.219884552398	0
10	101	19.419884552398	0
10	102	19.619884552398	0
10	103	19.624316896384	0
10	104	19.824316896384	0
10	105	20.024316896384	0
10	106	20.224316896384	0
10	107	20.424316896384	0
10	108	20.624316896384	0
10	109	20.824316896384	0
10	110	21.024316896384	0
10	111	21.224316896384	0
10	112	21.424316896384	0
10	113	21.624316896384	0
10	114	21.824316896384	0
10	115	22.024316896384	0
10	116	22.224316896384	0
10	117	22.424316896384	0
10	118	22.624316896384	0
10	119	22.65987778887	0
10	120	22.85987778887	0
10	121	23.05987778887	0
10	122	23.25987778887	0
10	123	23.45987778887	0
10	124	23.65987778887	0
10	125	23.85987778887	0
10	126	24.05987778887	0
10	127	24.130249093093	0
10	128	24.330249093093	0
10	129	24.530249093093	0
10	130	24.730249093093	0
10	131	24.930249093093	0
10	132	25.130249093093	0
10	133	25.330249093093	0
10	134	25.530249093093	0
10	135	25.730249093093	0
10	136	25.930249093093	0
10	137	26.130249093093	0
10	138	26.159992850542	0
10	139	26.359992850542	0
10	140	26.559992850542	0
10	141	26.759992850542	0
10	142	26.959992850542	0
10	143	27.159992850542	0
10	144	27.359992850542	0
10	145	27.559992850542	0
10	146	27.759992850542	0
10	147	27.805470256988	0
10	148	28.005470256988	0
10	149	28.205470256988	0
10	150	28.405470256988	0
10	151	28.605470256988	0
10	152	28.805470256988	0
10	153	29.005470256988	0
10	154	29.205470256988	0
10	155	29.405470256988	0
10	156	29.605470256988	0
10	157	29.805470256988	0
10	158	29.815059004175	0
10	159	30.015059004175	0
10	160	30.215059004175	0
10	161	30.415059004175	0
10	162	30.615059004175	0
10	163	30.815059004175	0
10	164	31.015059004175	0
10	165	31.215059004175	0
10	166	31.415059004175	0
10	167	31.601539642693	0
10	168	31.801539642693	0
10	169	32.001539642693	0
10	170	32.201539642693	0
10	171	32.401539642693	0
10	172	32.601539642693	0
10	173	32.801539642693	0
10	174	33.001539642693	0
10	175	33.156149015561	0
10	176	33.356149015561	0
10	177	33.556149015561	0
10	178	33.756149015561	0
10	179	33.956149015561	0
10	180	34.156149015561	0
10	181	34.356149015561	0
10	182	34.556149015561	0
10	183	34.607216589673	0
10	184	34.807216589673	0
10	185	35.007216589673	0
10	186	35.207216589673	0
10	187	35.407216589673	0
10	188	35.607216589673	0
10	189	35.807216589673	0
10	190	36.007216589673	0
10	191	36.207216589673	0
10	192	36.407216589673	0
10	193	36.607216589673	0
10	194	36.723003544041	0
10	195	36.923003544041	0
10	196	37.123003544041	0
10	197	37.323003544041	0
10	198	37.523003544041	0
10	199	37.723003544041	0
10	200	37.923003544041	0
10	201	38.123003544041	0
10	202	38.323003544041	0
10	203	38.523003544041	0
10	204	38.723003544041	0
10	205	38.923003544041	0
10	206	39.123003544041	0
10	207	39.141523136601	0
10	208	39.341523136601	0
10	209	39.541523136601	0
10	210	39.741523136601	0
10	211	39.941523136601	0
10	212	40.141523136601	0
10	213	40.341523136601	0
10	214	40.541523136601	0
10	215	40.741523136601	0
10	216	40.865952008253	0
10	217	41.065952008253	0
10	218	41.265952008253	0
10	219	41.465952008253	0
10	220	41.665952008253	0
10	221	41.865952008253	0
10	222	42.065952008253	0
10	223	42.265952008253	0
10	224	42.465952008253	0
10	225	42.665952008253	0
10	226	42.865952008253	0
10	227	42.906862720858	0
10	228	43.106862720858	0
10	229	43.306862720858	0
10	230	43.506862720858	0
10	231	43.706862720858	0
10	232	43.906862720858	0
10	233	44.106862720858	0
10	234	44.306862720858	0
10	235	44.446943762072	0
10	236	44.646943762072	0
10	237	44.846943762072	0
10	238	45.046943762072	0
10	239	45.246943762072	0
10	240	45.446943762072	0
10	241	45.646943762072	0
10	242	45.846943762072	0
10	243	46.046943762072	0
10	244	46.216824122186	0
10	245	46.416824122186	0
10	246	46.616824122186	0
10	247	46.816824122186	0
10	248	47.016824122186	0
10	249	47.216824122186	0
10	250	47.416824122186	0
10	251	47.616824122186	0
10	252	47.816824122186	0
10	253	47.840040386414	0
10	254	48.040040386414	0
10	255	48.240040386414	0
10	256	48.440040386414	0
10	257	48.640040386414	0
10	258	48.840040386414	0
10	259	49.040040386414	0
10	260	49.240040386414	0
10	261	49.440040386414	0
10	262	49.640040386414	0
10	263	49.840040386414	0
10	264	50.040040386414	0
10	265	50.1903093438	0
10	266	50.3903093438	0
10	267	50.5903093438	0
10	268	50.7903093438	0
10	269	50.9903093438	0
10	270	51.1903093438	0
10	271	51.3903093438	0
10	272	51.5903093438	0
10	273	51.7903093438	0
10	274	51.9903093438	0
10	275	52.0658512831	0
10	276	52.2658512831	0
10	277	52.4658512831	0
10	278	52.6658512831	0
10	279	52.8658512831	0
10	280	53.0658512831	0
10	281	53.2658512831	0
10	282	53.4658512831	0
10	283	53.6658512831	0
10	284	53.8658512831	0
10	285	53.926514264192	0
10	286	54.126514264192	0
10	287	54.326514264192	0
10	288	54.526514264192	0
10	289	54.726514264192	0
10	290	54.926514264192	0
10	291	55.126514264192	0
10	292	55.326514264192	0
10	293	55.526514264192	0
10	294	55.726514264192	0
10	295	55.869836519156	0
10	296	56.069836519156	0
10	297	56.269836519156	0
10	298	56.469836519156	0
10	299	56.669836519156	0
10	300	56.869836519156	0
10	301	57.069836519156	0
10	302	57.216170951905	0
10	303	57.416170951905	0
10	304	57.616170951905	0
10	305	57.816170951905	0
10	306	58.016170951905	0
10	307	58.216170951905	0
10	308	58.416170951905	0
10	309	58.616170951905	0
10	310	58.816170951905	0
10	311	59.016170951905	0
10	312	59.216170951905	0
10	313	59.416170951905	0
10	314	59.476825423892	0
10	315	59.676825423892	0
10	316	59.876825423892	0
10	317	60.076825423892	0
10	318	60.276825423892	0
10	319	60.476825423892	0
10	320	60.676825423892	0
10	321	60.876825423892	0
10	322	61.076825423892	0
10	323	61.276825423892	0
10	324	61.476825423892	0
10	325	61.676825423892	0
10	326	61.738829209033	0
10	327	61.938829209033	0
10	328	62.138829209033	0
10	329	62.338829209033	0
10	330	62.538829209033	0
10	331	62.738829209033	0
10	332	62.938829209033	0
10	333	63.138829209033	0
10	334	63.338829209033	0
10	335	63.538829209033	0
10	336	63.738829209033	0
10	337	63.76333083149	0
10	338	63.96333083149	0
10	339	64.16333083149	0
10	340	64.36333083149	0
10	341	64.56333083149	0
10	342	64.76333083149	0
10	343	64.96333083149	0
10	344	65.16333083149	0
10	345	65.36333083149	0
10	346	65.56333083149	0
10	347	65.76333083149	0
10	348	65.96333083149	0
10	349	66.053831012399	0
10	350	66.253831012399	0
10	351	66.453831012399	0
10	352	66.653831012399	0
10	353	66.853831012399	0
10	354	67.053831012399	0
10	355	67.253831012399	0
10	356	67.453831012399	0
10	357	67.653831012399	0
10	358	67.853831012399	0
10	359	68.053831012399	0
10	360	68.196355796863	0
10	361	68.396355796863	0
10	362	68.596355796863	0
10	363	68.796355796863	0
10	364	68.996355796863	0
10	365	69.196355796863	0
10	366	69.368042416678	0
10	367	69.568042416678	0
10	368	69.768042416678	0
10	369	69.968042416678	0
10	370	70.168042416678	0
10	371	70.368042416678	0
10	372	70.568042416678	0
10	373	70.768042416678	0
10	374	70.968042416678	0
10	375	71.013715150593	0
10	376	71.213715150593	0
10	377	71.413715150593	0
10	378	71.613715150593	0
10	379	71.813715150593	0
10	380	72.013715150593	0
10	381	72.213715150593	0
10	382	72.413715150593	0
10	383	72.613715150593	0
10	384	72.813715150593	0
10	385	72.966269102266	0
10	386	73.166269102266	0
10	387	73.366269102266	0
10	388	73.566269102266	0
10	389	73.766269102266	0
10	390	73.966269102266	0
10	391	74.166269102266	0
10	392	74.366269102266	0
10	393	74.566269102266	0
10	394	74.766269102266	0
10	395	74.966269102266	0
10	396	75.166269102266	0
10	397	75.242128660275	0
10	398	75.442128660275	0
10	399	75.642128660275	0
10	400	75.842128660275	0
10	401	76.042128660275	0
10	402	76.242128660275	0
10	403	76.442128660275	0
10	404	76.642128660275	0
10	405	76.842128660275	0
10	406	77.042128660275	0
10	407	77.242128660275	0
10	408	77.442128660275	0
10	409	77.642128660275	0
10	410	77.680430412278	0
10	411	77.880430412278	0
10	412	78.080430412278	0
10	413	78.280430412278	0
10	414	78.480430412278	0
10	415	78.680430412278	0
10	416	78.880430412278	0
10	417	79.080430412278	0
10	418	79.280430412278	0
10	419	79.480430412278	0
10	420	79.531337905444	0
10	421	79.731337905444	0
10	422	79.931337905444	0
11	0	0	0
11	1	0.2	0
11	2	0.4	0
11	3	0.6	0
11	4	0.8	0
11	5	1	0
11	6	1.2	0
11	7	1.4	0
11	8	1.6	0
11	9	1.8	0
11	10	2	0
11	11	2.2	0
11	12	2.4	0
11	13	2.558081669772	0
11	14	2.758081669772	0
11	15	2.958081669772	0
11	16	3.158081669772	0
11	17	3.358081669772	0
11	18	3.558081669772	0
11	19	3.758081669772	0
11	20	3.958081669772	0
11	21	4.158081669772	0
11	22	4.358081669772	0
11	23	4.558081669772	0
11	24	4.739320774541	0
11	25	4.939320774541	0
11	26	5.139320774541	0
11	27	5.339320774541	0
11	28	5.539320774541	0
11	29	5.739320774541	0
11	30	5.939320774541	0
11	31	6.139320774541	0
11	32	6.339320774541	0
11	33	6.539320774541	0
11	34	6.739320774541	0
11	35	6.939320774541	0
11	36	7.139320774541	0
11	37	7.339320774541	0
11	38	7.501723309589	0
11	39	7.701723309589	0
11	40	7.901723309589	0
11	41	8.101723309589	0
11	42	8.301723309589	0
11	43	8.501723309589	0
11	44	8.701723309589	0
11	45	8.901723309589	0
11	46	9.101723309589	0
11	47	9.301723309589	0
11	48	9.501723309589	0
11	49	9.701723309589	0
11	50	9.901723309589	0
11	51	9.920125553354	0
11	52	10.120125553354	0
11	53	10.320125553354	0
11	54	10.520125553354	0
11	55	10.720125553354	0
11	56	10.920125553354	0
11	57	11.120125553354	0
11	58	11.320125553354	0
11	59	11.520125553354	0
11	60	11.59967023524	0
11	61	11.79967023524	0
11	62	11.99967023524	0
11	63	12.19967023524	0
11	64	12.39967023524	0
11	65	12.59967023524	0
11	66	12.79967023524	0
11	67	12.99967023524	0
11	68	13.19967023524	0
11	69	13.270879792954	0
11	70	13.470879792954	0
11	71	13.670879792954	0
11	72	13.870879792954	0
11	73	14.070879792954	0
11	74	14.270879792954	0
11	75	14.470879792954	0
11	76	14.670879792954	0
11	77	14.870879792954	0
11	78	15.070879792954	0
11	79	15.270879792954	0
11	80	15.470879792954	0
11	81	15.511025979535	0
11	82	15.711025979535	0
11	83	15.911025979535	0
11	84	16.111025979535	0
11	85	16.311025979535	0
11	86	16.511025979535	0
11	87	16.711025979535	0
11	88	16.911025979535	0
11	89	17.111025979535	0
11	90	17.311025979535	0
11	91	17.511025979535	0
11	92	17.619884552398	0
11	93	17.819884552398	0
11	94	18.019884552398	0
11	95	18.219884552398	0
11	96	18.419884552398	0
11	97	18.619884552398	0
11	98	18.819884552398	0
11	99	19.019884552398	0
11	100	19.219884552398	0
11	101	19.419884552398	0
11	102	19.619884552398	0
11	103	19.624316896384	0
11	104	19.824316896384	0
11	105	20.024316896384	0
11	106	20.224316896384	0
11	107	20.424316896384	0
11	108	20.624316896384	0
11	109	20.824316896384	0
11	110	21.024316896384	0
11	111	21.224316896384	0
11	112	21.424316896384	0
11	113	21.624316896384	0
11	114	21.824316896384	0
11	115	22.024316896384	0
11	116	22.224316896384	0
11	117	22.424316896384	0
11	118	22.624316896384	0
11	119	22.65987778887	0
11	120	22.85987778887	0
11	121	23.05987778887	0
11	122	23.25987778887	0
11	123	23.45987778887	0
11	124	23.65987778887	0
11	125	23.85987778887	0
11	126	24.05987778887	0
11	127	24.130249093093	0
11	128	24.330249093093	0
11	129	24.530249093093	0
11	130	24.730249093093	0
11	131	24.930249093093	0
11	132	25.130249093093	0
11	133	25.330249093093	0
11	134	25.530249093093	0
11	135	25.730249093093	0
11	136	25.930249093093	0
11	137	26.130249093093	0
11	138	26.159992850542	0
11	139	26.359992850542	0
11	140	26.559992850542	0
11	141	26.759992850542	0
11	142	26.959992850542	0
11	143	27.159992850542	0
11	144	27.359992850542	0
11	145	27.559992850542	0
11	146	27.759992850542	0
11	147	27.805470256988	0
11	148	28.005470256988	0
11	149	28.205470256988	0
11	150	28.405470256988	0
11	151	28.605470256988	0
11	152	28.805470256988	0
11	153	29.005470256988	0
11	154	29.205470256988	0
11	155	29.405470256988	0
11	156	29.605470256988	0
11	157	29.805470256988	0
11	158	29.815059004175	0
11	159	30.015059004175	0
11	160	30.215059004175	0
11	161	30.415059004175	0
11	162	30.615059004175	0
11	163	30.815059004175	0
11	164	31.015059004175	0
11	165	31.215059004175	0
11	166	31.415059004175	0
11	167	31.601539642693	0
11	168	31.801539642693	0
11	169	32.001539642693	0
11	170	32.201539642693	0
11	171	32.401539642693	0
11	172	32.601539642693	0
11	173	32.801539642693	0
11	174	33.001539642693	0
11	175	33.156149015561	0
11	176	33.356149015561	0
11	177	33.556149015561	0
11	178	33.756149015561	0
11	179	33.956149015561	0
11	180	34.156149015561	0
11	181	34.356149015561	0
11	182	34.556149015561	0
11	183	34.607216589673	0
11	184	34.807216589673	0
11	185	35.007216589673	0
11	186	35.207216589673	0
11	187	35.407216589673	0
11	188	35.607216589673	0
11	189	35.807216589673	0
11	190	36.007216589673	0
11	191	36.207216589673	0
11	192	36.407216589673	0
11	193	36.607216589673	0
11	194	36.723003544041	0
11	195	36.923003544041	0
11	196	37.123003544041	0
11	197	37.323003544041	0
11	198	37.523003544041	0
11	199	37.723003544041	0
11	200	37.923003544041	0
11	201	38.123003544041	0
11	202	38.323003544041	0
11	203	38.523003544041	0
11	204	38.723003544041	0
11	205	38.923003544041	0
11	206	39.123003544041	0
11	207	39.141523136601	0
11	208	39.341523136601	0
11	209	39.541523136601	0
11	210	39.741523136601	0
11	211	39.941523136601	0
11	212	40.141523136601	0
11	213	40.341523136601	0
11	214	40.541523136601	0
11	215	40.741523136601	0
11	216	40.865952008253	0
11	217	41.065952008253	0
11	218	41.265952008253	0
11	219	41.465952008253	0
11	220	41.665952008253	0
11	221	41.865952008253	0
11	222	42.065952008253	0
11	223	42.265952008253	0
11	224	42.465952008253	0
11	225	42.665952008253	0
11	226	42.865952008253	0
11	227	42.906862720858	0
11	228	43.106862720858	0
11	229	43.306862720858	0
11	230	43.506862720858	0
11	231	43.706862720858	0
11	232	43.906862720858	0
11	233	44.106862720858	0
11	234	44.306862720858	0
11	235	44.446943762072	0
11	236	44.646943762072	0
11	237	44.846943762072	0
11	238	45.046943762072	0
11	239	45.246943762072	0
11	240	45.446943762072	0
11	241	45.646943762072	0
11	242	45.846943762072	0
11	243	46.046943762072	0
11	244	46.216824122186	0
11	245	46.416824122186	0
11	246	46.616824122186	0
11	247	46.816824122186	0
11	248	47.016824122186	0
11	249	47.216824122186	0
11	250	47.416824122186	0
11	251	47.616824122186	0
11	252	47.816824122186	0
11	253	47.840040386414	0
11	254	48.040040386414	0
11	255	48.240040386414	0
11	256	48.440040386414	0
11	257	48.640040386414	0
11	258	48.840040386414	0
11	259	49.040040386414	0
11	260	49.240040386414	0
11	261	49.440040386414	0
11	262	49.640040386414	0
11	263	49.840040386414	0
11	264	50.040040386414	0
11	265	50.1903093438	0
11	266	50.3903093438	0
11	267	50.5903093438	0
11	268	50.7903093438	0
11	269	50.9903093438	0
11	270	51.1903093438	0
11	271	51.3903093438	0
11	272	51.5903093438	0
11	273	51.7903093438	0
11	274	51.9903093438	0
11	275	52.0658512831	0
11	276	52.2658512831	0
11	277	52.4658512831	0
11	278	52.6658512831	0
11	279	52.8658512831	0
11	280	53.0658512831	0
11	281	53.2658512831	0
11	282	53.4658512831	0
11	283	53.6658512831	0
11	284	53.8658512831	0
11	285	53.926514264192	0
11	286	54.126514264192	0
11	287	54.326514264192	0
11	288	54.526514264192	0
11	289	54.726514264192	0
11	290	54.926514264192	0
11	291	55.126514264192	0
11	292	55.326514264192	0
11	293	55.526514264192	0
11	294	55.726514264192	0
11	295	55.869836519156	0
11	296	56.069836519156	0
11	297	56.269836519156	0
11	298	56.469836519156	0
11	299	56.669836519156	0
11	300	56.869836519156	0
11	301	57.069836519156	0
11	302	57.216170951905	0
11	303	57.416170951905	0
11	304	57.616170951905	0
11	305	57.816170951905	0
11	306	58.016170951905	0
11	307	58.216170951905	0
11	308	58.416170951905	0
11	309	58.616170951905	0
11	310	58.816170951905	0
11	311	59.016170951905	0
11	312	59.216170951905	0
11	313	59.416170951905	0
11	314	59.476825423892	0
11	315	59.676825423892	0
11	316	59.876825423892	0
11	317	60.076825423892	0
11	318	60.276825423892	0
11	319	60.476825423892	0
11	320	60.676825423892	0
11	321	60.876825423892	0
11	322	61.076825423892	0
11	323	61.276825423892	0
11	324	61.476825423892	0
11	325	61.676825423892	0
11	326	61.738829209033	0
11	327	61.938829209033	0
11	328	62.138829209033	0
11	329	62.338829209033	0
11	330	62.538829209033	0
11	331	62.738829209033	0
11	332	62.938829209033	0
11	333	63.138829209033	0
11	334	63.338829209033	0
11	335	63.538829209033	0
11	336	63.738829209033	0
11	337	63.76333083149	0
11	338	63.96333083149	0
11	339	64.16333083149	0
11	340	64.36333083149	0
11	341	64.56333083149	0
11	342	64.76333083149	0
11	343	64.96333083149	0
11	344	65.16333083149	0
11	345	65.36333083149	0
11	346	65.56333083149	0
11	347	65.76333083149	0
11	348	65.96333083149	0
11	349	66.053831012399	0
11	350	66.253831012399	0
11	351	66.453831012399	0
11	352	66.653831012399	0
11	353	66.853831012399	0
11	354	67.053831012399	0
11	355	67.253831012399	0
11	356	67.453831012399	0
11	357	67.653831012399	0
11	358	67.853831012399	0
11	359	68.053831012399	0
11	360	68.196355796863	0
11	361	68.396355796863	0
11	362	68.596355796863	0
11	363	68.796355796863	0
11	364	68.996355796863	0
11	365	69.196355796863	0
11	366	69.368042416678	0
11	367	69.568042416678	0
11	368	69.768042416678	0
11	369	69.968042416678	0
11	370	70.168042416678	0
11	371	70.368042416678	0
11	372	70.568042416678	0
11	373	70.768042416678	0
11	374	70.968042416678	0
11	375	71.013715150593	0
11	376	71.213715150593	0
11	377	71.413715150593	0
11	378	71.613715150593	0
11	379	71.813715150593	0
11	380	72.013715150593	0
11	381	72.213715150593	0
11	382	72.413715150593	0
11	383	72.613715150593	0
11	384	72.813715150593	0
11	385	72.966269102266	0
11	386	73.166269102266	0
11	387	73.366269102266	0
11	388	73.566269102266	0
11	389	73.766269102266	0
11	390	73.966269102266	0
11	391	74.166269102266	0
11	392	74.366269102266	0
11	393	74.566269102266	0
11	394	74.766269102266	0
11	395	74.966269102266	0
11	396	75.166269102266	0
11	397	75.242128660275	0
11	398	75.442128660275	0
11	399	75.642128660275	0
11	400	75.842128660275	0
11	401	76.042128660275	0
11	402	76.242128660275	0
11	403	76.442128660275	0
11	404	76.642128660275	0
11	405	76.842128660275	0
11	406	77.042128660275	0
11	407	77.242128660275	0
11	408	77.442128660275	0
11	409	77.642128660275	0
11	410	77.680430412278	0
11	411	77.880430412278	0
11	412	78.080430412278	0
11	413	78.280430412278	0
11	414	78.480430412278	0
11	415	78.680430412278	0
11	416	78.880430412278	0
11	417	79.080430412278	0
11	418	79.280430412278	0
11	419	79.480430412278	0
11	420	79.531337905444	0
11	421	79.731337905444	0
11	422	79.931337905444	0
12	0	0	0
12	1	0.2	0
12	2	0.4	0
12	3	0.6	0
12	4	0.8	0
12	5	1	0
12	6	1.2	0
12	7	1.4	0
12	8	1.6	0
12	9	1.8	0
12	10	2	0
12	11	2.2	0
12	12	2.4	0
12	13	2.558081669772	0
12	14	2.758081669772	0
12	15	2.958081669772	0
12	16	3.158081669772	0
12	17	3.358081669772	0
12	18	3.558081669772	0
12	19	3.758081669772	0
12	20	3.958081669772	0
12	21	4.158081669772	0
12	22	4.358081669772	0
12	23	4.558081669772	0
12	24	4.739320774541	0
12	25	4.939320774541	0
12	26	5.139320774541	0
12	27	5.339320774541	0
12	28	5.539320774541	0
12	29	5.739320774541	0
12	30	5.939320774541	0
12	31	6.139320774541	0
12	32	6.339320774541	0
12	33	6.539320774541	0
12	34	6.739320774541	0
12	35	6.939320774541	0
12	36	7.139320774541	0
12	37	7.339320774541	0
12	38	7.501723309589	0
12	39	7.701723309589	0
12	40	7.901723309589	0
12	41	8.101723309589	0
12	42	8.301723309589	0
12	43	8.501723309589	0
12	44	8.701723309589	0
12	45	8.901723309589	0
12	46	9.101723309589	0
12	47	9.301723309589	0
12	48	9.501723309589	0
12	49	9.701723309589	0
12	50	9.901723309589	0
12	51	9.920125553354	0
12	52	10.120125553354	0
12	53	10.320125553354	0
12	54	10.520125553354	0
12	55	10.720125553354	0
12	56	10.920125553354	0
12	57	11.120125553354	0
12	58	11.320125553354	0
12	59	11.520125553354	0
12	60	11.59967023524	0
12	61	11.79967023524	0
12	62	11.99967023524	0
12	63	12.19967023524	0
12	64	12.39967023524	0
12	65	12.59967023524	0
12	66	12.79967023524	0
12	67	12.99967023524	0
12	68	13.19967023524	0
12	69	13.270879792954	0
12	70	13.470879792954	0
12	71	13.670879792954	0
12	72	13.870879792954	0
12	73	14.070879792954	0
12	74	14.270879792954	0
12	75	14.470879792954	0
12	76	14.670879792954	0
12	77	14.870879792954	0
12	78	15.070879792954	0
12	79	15.270879792954	0
12	80	15.470879792954	0
12	81	15.511025979535	0
12	82	15.711025979535	0
12	83	15.911025979535	0
12	84	16.111025979535	0
12	85	16.311025979535	0
12	86	16.511025979535	0
12	87	16.711025979535	0
12	88	16.911025979535	0
12	89	17.111025979535	0
12	90	17.311025979535	0
12	91	17.511025979535	0
12	92	17.619884552398	0
12	93	17.819884552398	0
12	94	18.019884552398	0
12	95	18.219884552398	0
12	96	18.419884552398	0
12	97	18.619884552398	0
12	98	18.819884552398	0
12	99	19.019884552398	0
12	100	19.219884552398	0
12	101	19.419884552398	0
12	102	19.619884552398	0
12	103	19.624316896384	0
12	104	19.824316896384	0
12	105	20.024316896384	0
12	106	20.224316896384	0
12	107	20.424316896384	0
12	108	20.624316896384	0
12	109	20.824316896384	0
12	110	21.024316896384	0
12	111	21.224316896384	0
12	112	21.424316896384	0
12	113	21.624316896384	0
12	114	21.824316896384	0
12	115	22.024316896384	0
12	116	22.224316896384	0
12	117	22.424316896384	0
12	118	22.624316896384	0
12	119	22.65987778887	0
12	120	22.85987778887	0
12	121	23.05987778887	0
12	122	23.25987778887	0
12	123	23.45987778887	0
12	124	23.65987778887	0
12	125	23.85987778887	0
12	126	24.05987778887	0
12	127	24.130249093093	0
12	128	24.330249093093	0
12	129	24.530249093093	0
12	130	24.730249093093	0
12	131	24.930249093093	0
12	132	25.130249093093	0
12	133	25.330249093093	0
12	134	25.530249093093	0
12	135	25.730249093093	0
12	136	25.930249093093	0
12	137	26.130249093093	0
12	138	26.159992850542	0
12	139	26.359992850542	0
12	140	26.559992850542	0
12	141	26.759992850542	0
12	142	26.959992850542	0
12	143	27.159992850542	0
12	144	27.359992850542	0
12	145	27.559992850542	0
12	146	27.759992850542	0
12	147	27.805470256988	0
12	148	28.005470256988	0
12	149	28.205470256988	0
12	150	28.405470256988	0
12	151	28.605470256988	0
12	152	28.805470256988	0
12	153	29.005470256988	0
12	154	29.205470256988	0
12	155	29.405470256988	0
12	156	29.605470256988	0
12	157	29.805470256988	0
12	158	29.815059004175	0
12	159	30.015059004175	0
12	160	30.215059004175	0
12	161	30.415059004175	0
12	162	30.615059004175	0
12	163	30.815059004175	0
12	164	31.015059004175	0
12	165	31.215059004175	0
12	166	31.415059004175	0
12	167	31.601539642693	0
12	168	31.801539642693	0
12	169	32.001539642693	0
12	170	32.201539642693	0
12	171	32.401539642693	0