version 3
run CNPF-29-20240912-08:19:27-54225
attr configname CNPF
attr datetime 20240912-08:19:27
attr datetimef 20240912-081927
attr experiment CNPF
attr inifile omnetpp.ini
attr iterationvars $0=25
attr iterationvarsd 25
attr iterationvarsf 25-
attr measurement $0=25
attr network ParcelDeliveryNetwork
attr processid 54225
attr repetition 9
attr replication #9
attr resultdir results
attr runnumber 29
attr seedset 29
config image-path ../inet/images
config network ParcelDeliveryNetwork
config description "1 drones, 30 destinations, 30 parcels, "
config *.numdrones 1
config **.drone*.mobility.typename DroneNetMob
config **.drone[*].mobility.ndst 25
config **.drone[*].mobility.nd 8
config **.drone[*].mobility.npar 30
config **.drone[*].mobility.initFromDisplayString false
config **.drone[*].mobility.changeInterval "truncnormal(2s, 0.5s)"
config **.drone[*].mobility.angleDelta "normal(0deg, 30deg)"
config **.drone[*].mobility.speed 10mps
config **.drone[*].mobility.remainingBattery 480
config **.drone[*].mobility.weightCapacity 100
config **.drone[*].mobility.parcelSelectionMethod 0
config **.drone[*].mobility.initialX 0m
config **.drone[*].mobility.initialY 0m
config **.drone[*].mobility.initialZ 0m
config repeat 10
config sim-time-limit 80second
config **.constraintAreaMinX 0m
config **.constraintAreaMinY 0m
config **.constraintAreaMinZ 0m
config **.constraintAreaMaxX 600m
config **.constraintAreaMaxY 400m
config **.constraintAreaMaxZ 0m
config **.updateInterval 0.2s

vector 0 ParcelDeliveryNetwork.gcs.wlan[0].mac.dcf frameSequenceActive:vector ETV
attr autoWarmupFilter false
attr interpolationmode sample-hold
attr recordingmode vector
attr source warmup(count(frameSequenceStarted)-count(frameSequenceFinished))
attr title "frame sequence active"
vector 1 ParcelDeliveryNetwork.gcs.wlan[0].mac.dcf.channelAccess.pendingQueue queueLength:vector ETV
attr autoWarmupFilter false
attr interpolationmode sample-hold
attr recordingmode vector
attr source "warmup(atomic(constant0(packetPushEnded) + count(packetPushStarted) - count(packetPulled) - count(packetRemoved) - count(packetDropped)))"
attr title "queue length"
attr unit pk
vector 2 ParcelDeliveryNetwork.gcs.wlan[0].mac.dcf.channelAccess.pendingQueue queueBitLength:vector ETV
attr autoWarmupFilter false
attr interpolationmode sample-hold
attr recordingmode vector
attr source "warmup(atomic(constant0(packetPushEnded) + sum(packetLength(packetPushStarted)) - sum(packetLength(packetPulled)) - sum(packetLength(packetRemoved)) - sum(packetLength(packetDropped))))"
attr title "queue bit length"
attr unit b
vector 3 ParcelDeliveryNetwork.gcs.wlan[0].mac.dcf.channelAccess.inProgressFrames queueLength:vector ETV
attr autoWarmupFilter false
attr interpolationmode sample-hold
attr recordingmode vector
attr source "warmup(count(packetEnqueued) - count(packetDequeued))"
attr title "queue length"
vector 4 ParcelDeliveryNetwork.gcs.wlan[0].mac.dcf.channelAccess.contention backoffActive:vector ETV
attr autoWarmupFilter false
attr interpolationmode sample-hold
attr recordingmode vector
attr source warmup(count(backoffStarted)-count(backoffStopped))
attr title "backoff active"
vector 5 ParcelDeliveryNetwork.gcs.udp passedUpPk:vector(count) ETV
attr interpolationmode none
attr recordingmode vector(count)
attr source packetSentToUpper
attr title "packets passed up, count"
vector 6 ParcelDeliveryNetwork.gcs.udp droppedPkWrongPort:vector(count) ETV
attr interpolationmode none
attr recordingmode vector(count)
attr source packetDropReasonIsNoPortFound(packetDropped)
attr title "packets dropped (wrong port), count"
vector 7 ParcelDeliveryNetwork.gcs.udp droppedPkBadChecksum:vector(count) ETV
attr interpolationmode none
attr recordingmode vector(count)
attr source packetDropReasonIsIncorrectlyReceived(packetDropped)
attr title "packets dropped (checksum error), count"
vector 8 ParcelDeliveryNetwork.gcs.wlan[0].radio radioMode:vector ETV
attr interpolationmode sample-hold
attr recordingmode vector
attr source radioModeChanged
attr title "Radio mode"
vector 9 ParcelDeliveryNetwork.gcs.wlan[0].radio radioChannel:vector ETV
attr interpolationmode sample-hold
attr recordingmode vector
attr source radioChannelChanged
attr title "Radio channel"
vector 10 ParcelDeliveryNetwork.drone[0] coordX:vector ETV
attr interpolationmode linear
attr recordingmode vector
attr source xCoord(mobilityPos(mobilityStateChanged))
attr title "coord X"
vector 11 ParcelDeliveryNetwork.drone[0] coordY:vector ETV
attr interpolationmode linear
attr recordingmode vector
attr source yCoord(mobilityPos(mobilityStateChanged))
attr title "coord Y"
vector 12 ParcelDeliveryNetwork.drone[0] coordZ:vector ETV
attr interpolationmode linear
attr recordingmode vector
attr source zCoord(mobilityPos(mobilityStateChanged))
attr title "coord Z"
vector 13 ParcelDeliveryNetwork.gcs.wlan[0].radio receptionState:vector ETV
attr interpolationmode sample-hold
attr recordingmode vector
attr source receptionStateChanged
attr title "Radio reception state"
vector 14 ParcelDeliveryNetwork.gcs.wlan[0].mac.dcf.channelAccess.contention stateChanged:vector ETV
attr enum IDLE,DEFER,IFS_AND_BACKOFF
attr interpolationmode none
attr recordingmode vector
attr title "contention state changed"
attr type enum
vector 15 ParcelDeliveryNetwork.gcs.wlan[0].mac.dcf.recoveryProcedure contentionWindowChanged:vector ETV
attr interpolationmode sample-hold
attr recordingmode vector
attr title "contention window"
0	0	0	0
0	0	0	0
1	0	0	0
1	0	0	0
1	0	0	0
1	0	0	0
1	0	0	0
2	0	0	0
2	0	0	0
2	0	0	0
2	0	0	0
2	0	0	0
3	0	0	0
3	0	0	0
4	0	0	0
4	0	0	0
5	0	0	0
6	0	0	0
7	0	0	0
8	0	0	0
8	0	0	0
8	0	0	2
9	0	0	0
10	0	0	0
10	1	0.2	0
10	2	0.4	0
10	3	0.6	0
10	4	0.8	0
10	5	1	0
10	6	1.2	0
10	7	1.4	0
10	8	1.6	0
10	9	1.8	0
10	10	2	0
10	11	2.191601245495	0
10	12	2.391601245495	0
10	13	2.591601245495	0
10	14	2.791601245495	0
10	15	2.991601245495	0
10	16	3.191601245495	0
10	17	3.344449411616	0
10	18	3.544449411616	0
10	19	3.744449411616	0
10	20	3.944449411616	0
10	21	4.144449411616	0
10	22	4.344449411616	0
10	23	4.544449411616	0
10	24	4.744449411616	0
10	25	4.944449411616	0
10	26	5.070068583248	0
10	27	5.270068583248	0
10	28	5.470068583248	0
10	29	5.670068583248	0
10	30	5.870068583248	0
10	31	6.070068583248	0
10	32	6.270068583248	0
10	33	6.470068583248	0
10	34	6.670068583248	0
10	35	6.765619134888	0
10	36	6.965619134888	0
10	37	7.165619134888	0
10	38	7.365619134888	0
10	39	7.565619134888	0
10	40	7.765619134888	0
10	41	7.965619134888	0
10	42	8.165619134888	0
10	43	8.365619134888	0
10	44	8.565619134888	0
10	45	8.765619134888	0
10	46	8.965619134888	0
10	47	9.165619134888	0
10	48	9.257617752761	0
10	49	9.457617752761	0
10	50	9.657617752761	0
10	51	9.857617752761	0
10	52	10.057617752761	0
10	53	10.257617752761	0
10	54	10.457617752761	0
10	55	10.657617752761	0
10	56	10.857617752761	0
10	57	11.057617752761	0
10	58	11.257617752761	0
10	59	11.457617752761	0
10	60	11.657617752761	0
10	61	11.734759648731	0
10	62	11.934759648731	0
10	63	12.134759648731	0
10	64	12.334759648731	0
10	65	12.534759648731	0
10	66	12.734759648731	0
10	67	12.934759648731	0
10	68	13.134759648731	0
10	69	13.328412356267	0
10	70	13.528412356267	0
10	71	13.728412356267	0
10	72	13.928412356267	0
10	73	14.128412356267	0
10	74	14.328412356267	0
10	75	14.528412356267	0
10	76	14.728412356267	0
10	77	14.928412356267	0
10	78	15.128412356267	0
10	79	15.328412356267	0
10	80	15.528412356267	0
10	81	15.728412356267	0
10	82	15.770226109207	0
10	83	15.970226109207	0
10	84	16.170226109207	0
10	85	16.370226109207	0
10	86	16.570226109207	0
10	87	16.770226109207	0
10	88	16.970226109207	0
10	89	17.170226109207	0
10	90	17.370226109207	0
10	91	17.570226109207	0
10	92	17.770226109207	0
10	93	17.970226109207	0
10	94	18.023987028585	0
10	95	18.223987028585	0
10	96	18.423987028585	0
10	97	18.623987028585	0
10	98	18.823987028585	0
10	99	19.023987028585	0
10	100	19.223987028585	0
10	101	19.423987028585	0
10	102	19.623987028585	0
10	103	19.823987028585	0
10	104	20.023987028585	0
10	105	20.223987028585	0
10	106	20.393700963403	0
10	107	20.593700963403	0
10	108	20.793700963403	0
10	109	20.993700963403	0
10	110	21.193700963403	0
10	111	21.393700963403	0
10	112	21.593700963403	0
10	113	21.793700963403	0
10	114	21.993700963403	0
10	115	22.193700963403	0
10	116	22.28930439255	0
10	117	22.48930439255	0
10	118	22.68930439255	0
10	119	22.88930439255	0
10	120	23.08930439255	0
10	121	23.28930439255	0
10	122	23.48930439255	0
10	123	23.68930439255	0
10	124	23.775959143128	0
10	125	23.975959143128	0
10	126	24.175959143128	0
10	127	24.375959143128	0
10	128	24.575959143128	0
10	129	24.775959143128	0
10	130	24.975959143128	0
10	131	25.175959143128	0
10	132	25.375959143128	0
10	133	25.575959143128	0
10	134	25.775959143128	0
10	135	25.975959143128	0
10	136	26.175959143128	0
10	137	26.18044456835	0
10	138	26.38044456835	0
10	139	26.58044456835	0
10	140	26.78044456835	0
10	141	26.98044456835	0
10	142	27.18044456835	0
10	143	27.38044456835	0
10	144	27.58044456835	0
10	145	27.78044456835	0
10	146	27.98044456835	0
10	147	28.18044456835	0
10	148	28.38044456835	0
10	149	28.560120446845	0
10	150	28.760120446845	0
10	151	28.960120446845	0
10	152	29.160120446845	0
10	153	29.360120446845	0
10	154	29.560120446845	0
10	155	29.760120446845	0
10	156	29.960120446845	0
10	157	30.160120446845	0
10	158	30.360120446845	0
10	159	30.560120446845	0
10	160	30.760120446845	0
10	161	30.932685618103	0
10	162	31.132685618103	0
10	163	31.332685618103	0
10	164	31.532685618103	0
10	165	31.732685618103	0
10	166	31.932685618103	0
10	167	32.132685618103	0
10	168	32.332685618103	0
10	169	32.532685618103	0
10	170	32.732685618103	0
10	171	32.932685618103	0
10	172	33.132685618103	0
10	173	33.332685618103	0
10	174	33.532685618103	0
10	175	33.691777865871	0
10	176	33.891777865871	0
10	177	34.091777865871	0
10	178	34.291777865871	0
10	179	34.491777865871	0
10	180	34.691777865871	0
10	181	34.891777865871	0
10	182	35.091777865871	0
10	183	35.291777865871	0
10	184	35.315370408266	0
10	185	35.515370408266	0
10	186	35.715370408266	0
10	187	35.915370408266	0
10	188	36.115370408266	0
10	189	36.315370408266	0
10	190	36.515370408266	0
10	191	36.715370408266	0
10	192	36.777524031733	0
10	193	36.977524031733	0
10	194	37.177524031733	0
10	195	37.377524031733	0
10	196	37.577524031733	0
10	197	37.777524031733	0
10	198	37.977524031733	0
10	199	38.177524031733	0
10	200	38.377524031733	0
10	201	38.577524031733	0
10	202	38.777314355191	0
10	203	38.977314355191	0
10	204	39.177314355191	0
10	205	39.377314355191	0
10	206	39.577314355191	0
10	207	39.661518584501	0
10	208	39.861518584501	0
10	209	40.061518584501	0
10	210	40.261518584501	0
10	211	40.461518584501	0
10	212	40.661518584501	0
10	213	40.861518584501	0
10	214	41.061518584501	0
10	215	41.261518584501	0
10	216	41.461518584501	0
10	217	41.661518584501	0
10	218	41.789631385073	0
10	219	41.989631385073	0
10	220	42.189631385073	0
10	221	42.389631385073	0
10	222	42.589631385073	0
10	223	42.789631385073	0
10	224	42.797793433798	0
10	225	42.997793433798	0
10	226	43.197793433798	0
10	227	43.397793433798	0
10	228	43.597793433798	0
10	229	43.797793433798	0
10	230	43.997793433798	0
10	231	44.197793433798	0
10	232	44.397793433798	0
10	233	44.597793433798	0
10	234	44.694789978889	0
10	235	44.894789978889	0
10	236	45.094789978889	0
10	237	45.294789978889	0
10	238	45.494789978889	0
10	239	45.694789978889	0
10	240	45.894789978889	0
10	241	46.094789978889	0
10	242	46.122886829515	0
10	243	46.322886829515	0
10	244	46.522886829515	0
10	245	46.722886829515	0
10	246	46.922886829515	0
10	247	47.122886829515	0
10	248	47.322886829515	0
10	249	47.522886829515	0
10	250	47.554916214024	0
10	251	47.754916214024	0
10	252	47.954916214024	0
10	253	48.154916214024	0
10	254	48.354916214024	0
10	255	48.554916214024	0
10	256	48.754916214024	0
10	257	48.954916214024	0
10	258	49.154916214024	0
10	259	49.307044763476	0
10	260	49.507044763476	0
10	261	49.707044763476	0
10	262	49.907044763476	0
10	263	50.107044763476	0
10	264	50.307044763476	0
10	265	50.507044763476	0
10	266	50.707044763476	0
10	267	50.907044763476	0
10	268	51.107044763476	0
10	269	51.307044763476	0
10	270	51.361111197993	0
10	271	51.561111197993	0
10	272	51.761111197993	0
10	273	51.961111197993	0
10	274	52.161111197993	0
10	275	52.361111197993	0
10	276	52.561111197993	0
10	277	52.761111197993	0
10	278	52.961111197993	0
10	279	53.161111197993	0
10	280	53.361111197993	0
10	281	53.561111197993	0
10	282	53.761111197993	0
10	283	53.894928630244	0
10	284	54.094928630244	0
10	285	54.294928630244	0
10	286	54.494928630244	0
10	287	54.694928630244	0
10	288	54.894928630244	0
10	289	55.094928630244	0
10	290	55.294928630244	0
10	291	55.494928630244	0
10	292	55.694928630244	0
10	293	55.894928630244	0
10	294	55.964559111183	0
10	295	56.164559111183	0
10	296	56.364559111183	0
10	297	56.564559111183	0
10	298	56.764559111183	0
10	299	56.964559111183	0
10	300	57.164559111183	0
10	301	57.364559111183	0
10	302	57.564559111183	0
10	303	57.764559111183	0
10	304	57.964559111183	0
10	305	58.164559111183	0
10	306	58.349974438115	0
10	307	58.549974438115	0
10	308	58.749974438115	0
10	309	58.949974438115	0
10	310	59.149974438115	0
10	311	59.349974438115	0
10	312	59.549974438115	0
10	313	59.749974438115	0
10	314	59.949974438115	0
10	315	60.02884303066	0
10	316	60.22884303066	0
10	317	60.42884303066	0
10	318	60.62884303066	0
10	319	60.82884303066	0
10	320	61.02884303066	0
10	321	61.22884303066	0
10	322	61.42884303066	0
10	323	61.62884303066	0
10	324	61.82884303066	0
10	325	62.02884303066	0
10	326	62.137158590023	0
10	327	62.337158590023	0
10	328	62.537158590023	0
10	329	62.737158590023	0
10	330	62.937158590023	0
10	331	63.137158590023	0
10	332	63.337158590023	0
10	333	63.537158590023	0
10	334	63.737158590023	0
10	335	63.937158590023	0
10	336	64.137158590023	0
10	337	64.331370120566	0
10	338	64.531370120566	0
10	339	64.731370120566	0
10	340	64.931370120566	0
10	341	65.131370120566	0
10	342	65.331370120566	0
10	343	65.531370120566	0
10	344	65.731370120566	0
10	345	65.8717763911	0
10	346	66.0717763911	0
10	347	66.2717763911	0
10	348	66.4717763911	0
10	349	66.6717763911	0
10	350	66.8717763911	0
10	351	67.0717763911	0
10	352	67.2717763911	0
10	353	67.4717763911	0
10	354	67.6717763911	0
10	355	67.8717763911	0
10	356	68.061948497031	0
10	357	68.261948497031	0
10	358	68.461948497031	0
10	359	68.661948497031	0
10	360	68.861948497031	0
10	361	69.061948497031	0
10	362	69.261948497031	0
10	363	69.461948497031	0
10	364	69.661948497031	0
10	365	69.746988625452	0
10	366	69.946988625452	0
10	367	70.146988625452	0
10	368	70.346988625452	0
10	369	70.546988625452	0
10	370	70.746988625452	0
10	371	70.946988625452	0
10	372	71.146988625452	0
10	373	71.346988625452	0
10	374	71.546988625452	0
10	375	71.746988625452	0
10	376	71.946988625452	0
10	377	72.146988625452	0
10	378	72.274860774712	0
10	379	72.474860774712	0
10	380	72.674860774712	0
10	381	72.874860774712	0
10	382	73.074860774712	0
10	383	73.274860774712	0
10	384	73.474860774712	0
10	385	73.674860774712	0
10	386	73.874860774712	0
10	387	74.019807428073	0
10	388	74.219807428073	0
10	389	74.419807428073	0
10	390	74.619807428073	0
10	391	74.819807428073	0
10	392	75.019807428073	0
10	393	75.219807428073	0
10	394	75.419807428073	0
10	395	75.619807428073	0
10	396	75.819807428073	0
10	397	76.019807428073	0
10	398	76.219807428073	0
10	399	76.419807428073	0
10	400	76.525092687037	0
10	401	76.725092687037	0
10	402	76.925092687037	0
10	403	77.125092687037	0
10	404	77.325092687037	0
10	405	77.525092687037	0
10	406	77.725092687037	0
10	407	77.925092687037	0
10	408	78.125092687037	0
10	409	78.325092687037	0
10	410	78.525092687037	0
10	411	78.725092687037	0
10	412	78.925092687037	0
10	413	79.125092687037	0
10	414	79.325092687037	0
10	415	79.450341558456	0
10	416	79.650341558456	0
10	417	79.850341558456	0
11	0	0	0
11	1	0.2	0
11	2	0.4	0
11	3	0.6	0
11	4	0.8	0
11	5	1	0
11	6	1.2	0
11	7	1.4	0
11	8	1.6	0
11	9	1.8	0
11	10	2	0
11	11	2.191601245495	0
11	12	2.391601245495	0
11	13	2.591601245495	0
11	14	2.791601245495	0
11	15	2.991601245495	0
11	16	3.191601245495	0
11	17	3.344449411616	0
11	18	3.544449411616	0
11	19	3.744449411616	0
11	20	3.944449411616	0
11	21	4.144449411616	0
11	22	4.344449411616	0
11	23	4.544449411616	0
11	24	4.744449411616	0
11	25	4.944449411616	0
11	26	5.070068583248	0
11	27	5.270068583248	0
11	28	5.470068583248	0
11	29	5.670068583248	0
11	30	5.870068583248	0
11	31	6.070068583248	0
11	32	6.270068583248	0
11	33	6.470068583248	0
11	34	6.670068583248	0
11	35	6.765619134888	0
11	36	6.965619134888	0
11	37	7.165619134888	0
11	38	7.365619134888	0
11	39	7.565619134888	0
11	40	7.765619134888	0
11	41	7.965619134888	0
11	42	8.165619134888	0
11	43	8.365619134888	0
11	44	8.565619134888	0
11	45	8.765619134888	0
11	46	8.965619134888	0
11	47	9.165619134888	0
11	48	9.257617752761	0
11	49	9.457617752761	0
11	50	9.657617752761	0
11	51	9.857617752761	0
11	52	10.057617752761	0
11	53	10.257617752761	0
11	54	10.457617752761	0
11	55	10.657617752761	0
11	56	10.857617752761	0
11	57	11.057617752761	0
11	58	11.257617752761	0
11	59	11.457617752761	0
11	60	11.657617752761	0
11	61	11.734759648731	0
11	62	11.934759648731	0
11	63	12.134759648731	0
11	64	12.334759648731	0
11	65	12.534759648731	0
11	66	12.734759648731	0
11	67	12.934759648731	0
11	68	13.134759648731	0
11	69	13.328412356267	0
11	70	13.528412356267	0
11	71	13.728412356267	0
11	72	13.928412356267	0
11	73	14.128412356267	0
11	74	14.328412356267	0
11	75	14.528412356267	0
11	76	14.728412356267	0
11	77	14.928412356267	0
11	78	15.128412356267	0
11	79	15.328412356267	0
11	80	15.528412356267	0
11	81	15.728412356267	0
11	82	15.770226109207	0
11	83	15.970226109207	0
11	84	16.170226109207	0
11	85	16.370226109207	0
11	86	16.570226109207	0
11	87	16.770226109207	0
11	88	16.970226109207	0
11	89	17.170226109207	0
11	90	17.370226109207	0
11	91	17.570226109207	0
11	92	17.770226109207	0
11	93	17.970226109207	0
11	94	18.023987028585	0
11	95	18.223987028585	0
11	96	18.423987028585	0
11	97	18.623987028585	0
11	98	18.823987028585	0
11	99	19.023987028585	0
11	100	19.223987028585	0
11	101	19.423987028585	0
11	102	19.623987028585	0
11	103	19.823987028585	0
11	104	20.023987028585	0
11	105	20.223987028585	0
11	106	20.393700963403	0
11	107	20.593700963403	0
11	108	20.793700963403	0
11	109	20.993700963403	0
11	110	21.193700963403	0
11	111	21.393700963403	0
11	112	21.593700963403	0
11	113	21.793700963403	0
11	114	21.993700963403	0
11	115	22.193700963403	0
11	116	22.28930439255	0
11	117	22.48930439255	0
11	118	22.68930439255	0
11	119	22.88930439255	0
11	120	23.08930439255	0
11	121	23.28930439255	0
11	122	23.48930439255	0
11	123	23.68930439255	0
11	124	23.775959143128	0
11	125	23.975959143128	0
11	126	24.175959143128	0
11	127	24.375959143128	0
11	128	24.575959143128	0
11	129	24.775959143128	0
11	130	24.975959143128	0
11	131	25.175959143128	0
11	132	25.375959143128	0
11	133	25.575959143128	0
11	134	25.775959143128	0
11	135	25.975959143128	0
11	136	26.175959143128	0
11	137	26.18044456835	0
11	138	26.38044456835	0
11	139	26.58044456835	0
11	140	26.78044456835	0
11	141	26.98044456835	0
11	142	27.18044456835	0
11	143	27.38044456835	0
11	144	27.58044456835	0
11	145	27.78044456835	0
11	146	27.98044456835	0
11	147	28.18044456835	0
11	148	28.38044456835	0
11	149	28.560120446845	0
11	150	28.760120446845	0
11	151	28.960120446845	0
11	152	29.160120446845	0
11	153	29.360120446845	0
11	154	29.560120446845	0
11	155	29.760120446845	0
11	156	29.960120446845	0
11	157	30.160120446845	0
11	158	30.360120446845	0
11	159	30.560120446845	0
11	160	30.760120446845	0
11	161	30.932685618103	0
11	162	31.132685618103	0
11	163	31.332685618103	0
11	164	31.532685618103	0
11	165	31.732685618103	0
11	166	31.932685618103	0
11	167	32.132685618103	0
11	168	32.332685618103	0
11	169	32.532685618103	0
11	170	32.732685618103	0
11	171	32.932685618103	0
11	172	33.132685618103	0
11	173	33.332685618103	0
11	174	33.532685618103	0
11	175	33.691777865871	0
11	176	33.891777865871	0
11	177	34.091777865871	0
11	178	34.291777865871	0
11	179	34.491777865871	0
11	180	34.691777865871	0
11	181	34.891777865871	0
11	182	35.091777865871	0
11	183	35.291777865871	0
11	184	35.315370408266	0
11	185	35.515370408266	0
11	186	35.715370408266	0
11	187	35.915370408266	0
11	188	36.115370408266	0
11	189	36.315370408266	0
11	190	36.515370408266	0
11	191	36.715370408266	0
11	192	36.777524031733	0
11	193	36.977524031733	0
11	194	37.177524031733	0
11	195	37.377524031733	0
11	196	37.577524031733	0
11	197	37.777524031733	0
11	198	37.977524031733	0
11	199	38.177524031733	0
11	200	38.377524031733	0
11	201	38.577524031733	0
11	202	38.777314355191	0
11	203	38.977314355191	0
11	204	39.177314355191	0
11	205	39.377314355191	0
11	206	39.577314355191	0
11	207	39.661518584501	0
11	208	39.861518584501	0
11	209	40.061518584501	0
11	210	40.261518584501	0
11	211	40.461518584501	0
11	212	40.661518584501	0
11	213	40.861518584501	0
11	214	41.061518584501	0
11	215	41.261518584501	0
11	216	41.461518584501	0
11	217	41.661518584501	0
11	218	41.789631385073	0
11	219	41.989631385073	0
11	220	42.189631385073	0
11	221	42.389631385073	0
11	222	42.589631385073	0
11	223	42.789631385073	0
11	224	42.797793433798	0
11	225	42.997793433798	0
11	226	43.197793433798	0
11	227	43.397793433798	0
11	228	43.597793433798	0
11	229	43.797793433798	0
11	230	43.997793433798	0
11	231	44.197793433798	0
11	232	44.397793433798	0
11	233	44.597793433798	0
11	234	44.694789978889	0
11	235	44.894789978889	0
11	236	45.094789978889	0
11	237	45.294789978889	0
11	238	45.494789978889	0
11	239	45.694789978889	0
11	240	45.894789978889	0
11	241	46.094789978889	0
11	242	46.122886829515	0
11	243	46.322886829515	0
11	244	46.522886829515	0
11	245	46.722886829515	0
11	246	46.922886829515	0
11	247	47.122886829515	0
11	248	47.322886829515	0
11	249	47.522886829515	0
11	250	47.554916214024	0
11	251	47.754916214024	0
11	252	47.954916214024	0
11	253	48.154916214024	0
11	254	48.354916214024	0
11	255	48.554916214024	0
11	256	48.754916214024	0
11	257	48.954916214024	0
11	258	49.154916214024	0
11	259	49.307044763476	0
11	260	49.507044763476	0
11	261	49.707044763476	0
11	262	49.907044763476	0
11	263	50.107044763476	0
11	264	50.307044763476	0
11	265	50.507044763476	0
11	266	50.707044763476	0
11	267	50.907044763476	0
11	268	51.107044763476	0
11	269	51.307044763476	0
11	270	51.361111197993	0
11	271	51.561111197993	0
11	272	51.761111197993	0
11	273	51.961111197993	0
11	274	52.161111197993	0
11	275	52.361111197993	0
11	276	52.561111197993	0
11	277	52.761111197993	0
11	278	52.961111197993	0
11	279	53.161111197993	0
11	280	53.361111197993	0
11	281	53.561111197993	0
11	282	53.761111197993	0
11	283	53.894928630244	0
11	284	54.094928630244	0
11	285	54.294928630244	0
11	286	54.494928630244	0
11	287	54.694928630244	0
11	288	54.894928630244	0
11	289	55.094928630244	0
11	290	55.294928630244	0
11	291	55.494928630244	0
11	292	55.694928630244	0
11	293	55.894928630244	0
11	294	55.964559111183	0
11	295	56.164559111183	0
11	296	56.364559111183	0
11	297	56.564559111183	0
11	298	56.764559111183	0
11	299	56.964559111183	0
11	300	57.164559111183	0
11	301	57.364559111183	0
11	302	57.564559111183	0
11	303	57.764559111183	0
11	304	57.964559111183	0
11	305	58.164559111183	0
11	306	58.349974438115	0
11	307	58.549974438115	0
11	308	58.749974438115	0
11	309	58.949974438115	0
11	310	59.149974438115	0
11	311	59.349974438115	0
11	312	59.549974438115	0
11	313	59.749974438115	0
11	314	59.949974438115	0
11	315	60.02884303066	0
11	316	60.22884303066	0
11	317	60.42884303066	0
11	318	60.62884303066	0
11	319	60.82884303066	0
11	320	61.02884303066	0
11	321	61.22884303066	0
11	322	61.42884303066	0
11	323	61.62884303066	0
11	324	61.82884303066	0
11	325	62.02884303066	0
11	326	62.137158590023	0
11	327	62.337158590023	0
11	328	62.537158590023	0
11	329	62.737158590023	0
11	330	62.937158590023	0
11	331	63.137158590023	0
11	332	63.337158590023	0
11	333	63.537158590023	0
11	334	63.737158590023	0
11	335	63.937158590023	0
11	336	64.137158590023	0
11	337	64.331370120566	0
11	338	64.531370120566	0
11	339	64.731370120566	0
11	340	64.931370120566	0
11	341	65.131370120566	0
11	342	65.331370120566	0
11	343	65.531370120566	0
11	344	65.731370120566	0
11	345	65.8717763911	0
11	346	66.0717763911	0
11	347	66.2717763911	0
11	348	66.4717763911	0
11	349	66.6717763911	0
11	350	66.8717763911	0
11	351	67.0717763911	0
11	352	67.2717763911	0
11	353	67.4717763911	0
11	354	67.6717763911	0
11	355	67.8717763911	0
11	356	68.061948497031	0
11	357	68.261948497031	0
11	358	68.461948497031	0
11	359	68.661948497031	0
11	360	68.861948497031	0
11	361	69.061948497031	0
11	362	69.261948497031	0
11	363	69.461948497031	0
11	364	69.661948497031	0
11	365	69.746988625452	0
11	366	69.946988625452	0
11	367	70.146988625452	0
11	368	70.346988625452	0
11	369	70.546988625452	0
11	370	70.746988625452	0
11	371	70.946988625452	0
11	372	71.146988625452	0
11	373	71.346988625452	0
11	374	71.546988625452	0
11	375	71.746988625452	0
11	376	71.946988625452	0
11	377	72.146988625452	0
11	378	72.274860774712	0
11	379	72.474860774712	0
11	380	72.674860774712	0
11	381	72.874860774712	0
11	382	73.074860774712	0
11	383	73.274860774712	0
11	384	73.474860774712	0
11	385	73.674860774712	0
11	386	73.874860774712	0
11	387	74.019807428073	0
11	388	74.219807428073	0
11	389	74.419807428073	0
11	390	74.619807428073	0
11	391	74.819807428073	0
11	392	75.019807428073	0
11	393	75.219807428073	0
11	394	75.419807428073	0
11	395	75.619807428073	0
11	396	75.819807428073	0
11	397	76.019807428073	0
11	398	76.219807428073	0
11	399	76.419807428073	0
11	400	76.525092687037	0
11	401	76.725092687037	0
11	402	76.925092687037	0
11	403	77.125092687037	0
11	404	77.325092687037	0
11	405	77.525092687037	0
11	406	77.725092687037	0
11	407	77.925092687037	0
11	408	78.125092687037	0
11	409	78.325092687037	0
11	410	78.525092687037	0
11	411	78.725092687037	0
11	412	78.925092687037	0
11	413	79.125092687037	0
11	414	79.325092687037	0
11	415	79.450341558456	0
11	416	79.650341558456	0
11	417	79.850341558456	0
12	0	0	0
12	1	0.2	0
12	2	0.4	0
12	3	0.6	0
12	4	0.8	0
12	5	1	0
12	6	1.2	0
12	7	1.4	0
12	8	1.6	0
12	9	1.8	0
12	10	2	0
12	11	2.191601245495	0
12	12	2.391601245495	0
12	13	2.591601245495	0
12	14	2.791601245495	0
12	15	2.991601245495	0
12	16	3.191601245495	0
12	17	3.344449411616	0
12	18	3.544449411616	0
12	19	3.744449411616	0
12	20	3.944449411616	0
12	21	4.144449411616	0
12	22	4.344449411616	0
12	23	4.544449411616	0
12	24	4.744449411616	0
12	25	4.944449411616	0
12	26	5.070068583248	0
12	27	5.270068583248	0
12	28	5.470068583248	0
12	29	5.670068583248	0
12	30	5.870068583248	0
12	31	6.070068583248	0
12	32	6.270068583248	0
12	33	6.470068583248	0
12	34	6.670068583248	0
12	35	6.765619134888	0
12	36	6.965619134888	0
12	37	7.165619134888	0
12	38	7.365619134888	0
12	39	7.565619134888	0
12	40	7.765619134888	0
12	41	7.965619134888	0
12	42	8.165619134888	0
12	43	8.365619134888	0
12	44	8.565619134888	0
12	45	8.765619134888	0
12	46	8.965619134888	0
12	47	9.165619134888	0
12	48	9.257617752761	0
12	49	9.457617752761	0
12	50	9.657617752761	0
12	51	9.857617752761	0
12	52	10.057617752761	0
12	53	10.257617752761	0
12	54	10.457617752761	0
12	55	10.657617752761	0
12	56	10.857617752761	0
12	57	11.057617752761	0
12	58	11.257617752761	0
12	59	11.457617752761	0
12	60	11.657617752761	0
12	61	11.734759648731	0
12	62	11.934759648731	0
12	63	12.134759648731	0
12	64	12.334759648731	0
12	65	12.534759648731	0
12	66	12.734759648731	0
12	67	12.934759648731	0
12	68	13.134759648731	0
12	69	13.328412356267	0
12	70	13.528412356267	0
12	71	13.728412356267	0
12	72	13.928412356267	0
12	73	14.128412356267	0
12	74	14.328412356267	0
12	75	14.528412356267	0
12	76	14.728412356267	0
12	77	14.928412356267	0
12	78	15.128412356267	0
12	79	15.328412356267	0
12	80	15.528412356267	0
12	81	15.728412356267	0
12	82	15.770226109207	0
12	83	15.970226109207	0
12	84	16.170226109207	0
12	85	16.370226109207	0
12	86	16.570226109207	0
12	87	16.770226109207	0
12	88	16.970226109207	0
12	89	17.170226109207	0
12	90	17.370226109207	0
12	91	17.570226109207	0
12	92	17.770226109207	0
12	93	17.970226109207	0
12	94	18.023987028585	0
12	95	18.223987028585	0
12	96	18.423987028585	0
12	97	18.623987028585	0
12	98	18.823987028585	0
12	99	19.023987028585	0
12	100	19.223987028585	0
12	101	19.423987028585	0
12	102	19.623987028585	0
12	103	19.823987028585	0
12	104	20.023987028585	0
12	105	20.223987028585	0
12	106	20.393700963403	0
12	107	20.593700963403	0
12	108	20.793700963403	0
12	109	20.993700963403	0
12	110	21.193700963403	0
12	111	21.393700963403	0
12	112	21.593700963403	0
12	113	21.793700963403	0
12	114	21.993700963403	0
12	115	22.193700963403	0
12	116	22.28930439255	0
12	117	22.48930439255	0
12	118	22.68930439255	0
12	119	22.88930439255	0
12	120	23.08930439255	0
12	121	23.28930439255	0
12	122	23.48930439255	0
12	123	23.68930439255	0
12	124	23.775959143128	0
12	125	23.975959143128	0
12	126	24.175959143128	0
12	127	24.375959143128	0
12	128	24.575959143128	0
12	129	24.775959143128	0
12	130	24.975959143128	0
12	131	25.175959143128	0
12	132	25.375959143128	0
12	133	25.575959143128	0
12	134	25.775959143128	0
12	135	25.975959143128	0
12	136	26.175959143128	0
12	137	26.18044456835	0
12	138	26.38044456835	0
12	139	26.58044456835	0
12	140	26.78044456835	0
12	141	26.98044456835	0
12	142	27.18044456835	0
12	143	27.38044456835	0
12	144	27.58044456835	0
12	145	27.78044456835	0
12	146	27.98044456835	0
12	147	28.18044456835	0
12	148	28.38044456835	0
12	149	28.560120446845	0
12	150	28.760120446845	0
12	151	28.960120446845	0
12	152	29.160120446845	0
12	153	29.360120446845	0
12	154	29.560120446845	0
12	155	29.760120446845	0
12	156	29.960120446845	0
12	157	30.160120446845	0
12	158	30.360120446845	0
12	159	30.560120446845	0
12	160	30.760120446845	0
12	161	30.932685618103	0
12	162	31.132685618103	0
12	163	31.332685618103	0
12	164	31.532685618103	0
12	165	31.732685618103	0
12	166	31.932685618103	0
12	167	32.132685618103	0
12	168	32.332685618103	0
12	169	32.532685618103	0
12	170	32.732685618103	0
12	171	32.932685618103	0
12	172	33.132685618103	0
12	173	33.332685618103	0
12	174	33.532685618103	0
12	175	33.691777865871	0
12	176	33.891777865871	0
12	177	34.091777865871	0