version 3
run CNPF-21-20240912-08:19:27-54225
attr configname CNPF
attr datetime 20240912-08:19:27
attr datetimef 20240912-081927
attr experiment CNPF
attr inifile omnetpp.ini
attr iterationvars $0=25
attr iterationvarsd 25
attr iterationvarsf 25-
attr measurement $0=25
attr network ParcelDeliveryNetwork
attr processid 54225
attr repetition 1
attr replication #1
attr resultdir results
attr runnumber 21
attr seedset 21
config image-path ../inet/images
config network ParcelDeliveryNetwork
config description "1 drones, 30 destinations, 30 parcels, "
config *.numdrones 1
config **.drone*.mobility.typename DroneNetMob
config **.drone[*].mobility.ndst 25
config **.drone[*].mobility.nd 8
config **.drone[*].mobility.npar 30
config **.drone[*].mobility.initFromDisplayString false
config **.drone[*].mobility.changeInterval "truncnormal(2s, 0.5s)"
config **.drone[*].mobility.angleDelta "normal(0deg, 30deg)"
config **.drone[*].mobility.speed 10mps
config **.drone[*].mobility.remainingBattery 480
config **.drone[*].mobility.weightCapacity 100
config **.drone[*].mobility.parcelSelectionMethod 0
config **.drone[*].mobility.initialX 0m
config **.drone[*].mobility.initialY 0m
config **.drone[*].mobility.initialZ 0m
config repeat 10
config sim-time-limit 80second
config **.constraintAreaMinX 0m
config **.constraintAreaMinY 0m
config **.constraintAreaMinZ 0m
config **.constraintAreaMaxX 600m
config **.constraintAreaMaxY 400m
config **.constraintAreaMaxZ 0m
config **.updateInterval 0.2s

vector 0 ParcelDeliveryNetwork.gcs.wlan[0].mac.dcf frameSequenceActive:vector ETV
attr autoWarmupFilter false
attr interpolationmode sample-hold
attr recordingmode vector
attr source warmup(count(frameSequenceStarted)-count(frameSequenceFinished))
attr title "frame sequence active"
vector 1 ParcelDeliveryNetwork.gcs.wlan[0].mac.dcf.channelAccess.pendingQueue queueLength:vector ETV
attr autoWarmupFilter false
attr interpolationmode sample-hold
attr recordingmode vector
attr source "warmup(atomic(constant0(packetPushEnded) + count(packetPushStarted) - count(packetPulled) - count(packetRemoved) - count(packetDropped)))"
attr title "queue length"
attr unit pk
vector 2 ParcelDeliveryNetwork.gcs.wlan[0].mac.dcf.channelAccess.pendingQueue queueBitLength:vector ETV
attr autoWarmupFilter false
attr interpolationmode sample-hold
attr recordingmode vector
attr source "warmup(atomic(constant0(packetPushEnded) + sum(packetLength(packetPushStarted)) - sum(packetLength(packetPulled)) - sum(packetLength(packetRemoved)) - sum(packetLength(packetDropped))))"
attr title "queue bit length"
attr unit b
vector 3 ParcelDeliveryNetwork.gcs.wlan[0].mac.dcf.channelAccess.inProgressFrames queueLength:vector ETV
attr autoWarmupFilter false
attr interpolationmode sample-hold
attr recordingmode vector
attr source "warmup(count(packetEnqueued) - count(packetDequeued))"
attr title "queue length"
vector 4 ParcelDeliveryNetwork.gcs.wlan[0].mac.dcf.channelAccess.contention backoffActive:vector ETV
attr autoWarmupFilter false
attr interpolationmode sample-hold
attr recordingmode vector
attr source warmup(count(backoffStarted)-count(backoffStopped))
attr title "backoff active"
vector 5 ParcelDeliveryNetwork.gcs.udp passedUpPk:vector(count) ETV
attr interpolationmode none
attr recordingmode vector(count)
attr source packetSentToUpper
attr title "packets passed up, count"
vector 6 ParcelDeliveryNetwork.gcs.udp droppedPkWrongPort:vector(count) ETV
attr interpolationmode none
attr recordingmode vector(count)
attr source packetDropReasonIsNoPortFound(packetDropped)
attr title "packets dropped (wrong port), count"
vector 7 ParcelDeliveryNetwork.gcs.udp droppedPkBadChecksum:vector(count) ETV
attr interpolationmode none
attr recordingmode vector(count)
attr source packetDropReasonIsIncorrectlyReceived(packetDropped)
attr title "packets dropped (checksum error), count"
vector 8 ParcelDeliveryNetwork.gcs.wlan[0].radio radioMode:vector ETV
attr interpolationmode sample-hold
attr recordingmode vector
attr source radioModeChanged
attr title "Radio mode"
vector 9 ParcelDeliveryNetwork.gcs.wlan[0].radio radioChannel:vector ETV
attr interpolationmode sample-hold
attr recordingmode vector
attr source radioChannelChanged
attr title "Radio channel"
vector 10 ParcelDeliveryNetwork.drone[0] coordX:vector ETV
attr interpolationmode linear
attr recordingmode vector
attr source xCoord(mobilityPos(mobilityStateChanged))
attr title "coord X"
vector 11 ParcelDeliveryNetwork.drone[0] coordY:vector ETV
attr interpolationmode linear
attr recordingmode vector
attr source yCoord(mobilityPos(mobilityStateChanged))
attr title "coord Y"
vector 12 ParcelDeliveryNetwork.drone[0] coordZ:vector ETV
attr interpolationmode linear
attr recordingmode vector
attr source zCoord(mobilityPos(mobilityStateChanged))
attr title "coord Z"
vector 13 ParcelDeliveryNetwork.gcs.wlan[0].radio receptionState:vector ETV
attr interpolationmode sample-hold
attr recordingmode vector
attr source receptionStateChanged
attr title "Radio reception state"
vector 14 ParcelDeliveryNetwork.gcs.wlan[0].mac.dcf.channelAccess.contention stateChanged:vector ETV
attr enum IDLE,DEFER,IFS_AND_BACKOFF
attr interpolationmode none
attr recordingmode vector
attr title "contention state changed"
attr type enum
vector 15 ParcelDeliveryNetwork.gcs.wlan[0].mac.dcf.recoveryProcedure contentionWindowChanged:vector ETV
attr interpolationmode sample-hold
attr recordingmode vector
attr title "contention window"
0	0	0	0
0	0	0	0
1	0	0	0
1	0	0	0
1	0	0	0
1	0	0	0
1	0	0	0
2	0	0	0
2	0	0	0
2	0	0	0
2	0	0	0
2	0	0	0
3	0	0	0
3	0	0	0
4	0	0	0
4	0	0	0
5	0	0	0
6	0	0	0
7	0	0	0
8	0	0	0
8	0	0	0
8	0	0	2
9	0	0	0
10	0	0	0
10	1	0.2	0
10	2	0.4	0
10	3	0.6	0
10	4	0.8	0
10	5	1	0
10	6	1.2	0
10	7	1.4	0
10	8	1.6	0
10	9	1.8	0
10	10	2	0
10	11	2.2	0
10	12	2.4	0
10	13	2.6	0
10	14	2.778364782811	0
10	15	2.978364782811	0
10	16	3.178364782811	0
10	17	3.378364782811	0
10	18	3.578364782811	0
10	19	3.778364782811	0
10	20	3.978364782811	0
10	21	4.178364782811	0
10	22	4.378364782811	0
10	23	4.578364782811	0
10	24	4.778364782811	0
10	25	4.878098814882	0
10	26	5.078098814882	0
10	27	5.278098814882	0
10	28	5.478098814882	0
10	29	5.678098814882	0
10	30	5.878098814882	0
10	31	6.078098814882	0
10	32	6.278098814882	0
10	33	6.478098814882	0
10	34	6.678098814882	0
10	35	6.768465174231	0
10	36	6.968465174231	0
10	37	7.168465174231	0
10	38	7.368465174231	0
10	39	7.568465174231	0
10	40	7.768465174231	0
10	41	7.968465174231	0
10	42	8.168465174231	0
10	43	8.368465174231	0
10	44	8.568465174231	0
10	45	8.768465174231	0
10	46	8.857664414799	0
10	47	9.057664414799	0
10	48	9.257664414799	0
10	49	9.457664414799	0
10	50	9.657664414799	0
10	51	9.857664414799	0
10	52	10.057664414799	0
10	53	10.257664414799	0
10	54	10.457664414799	0
10	55	10.657664414799	0
10	56	10.857664414799	0
10	57	11.057664414799	0
10	58	11.098723478311	0
10	59	11.298723478311	0
10	60	11.498723478311	0
10	61	11.698723478311	0
10	62	11.898723478311	0
10	63	12.098723478311	0
10	64	12.298723478311	0
10	65	12.498723478311	0
10	66	12.698723478311	0
10	67	12.701763125277	0
10	68	12.901763125277	0
10	69	13.101763125277	0
10	70	13.301763125277	0
10	71	13.501763125277	0
10	72	13.701763125277	0
10	73	13.901763125277	0
10	74	14.101763125277	0
10	75	14.301763125277	0
10	76	14.501763125277	0
10	77	14.701763125277	0
10	78	14.895034535177	0
10	79	15.095034535177	0
10	80	15.295034535177	0
10	81	15.495034535177	0
10	82	15.695034535177	0
10	83	15.895034535177	0
10	84	16.095034535177	0
10	85	16.295034535177	0
10	86	16.495034535177	0
10	87	16.695034535177	0
10	88	16.895034535177	0
10	89	17.095034535177	0
10	90	17.196689909778	0
10	91	17.396689909778	0
10	92	17.596689909778	0
10	93	17.796689909778	0
10	94	17.996689909778	0
10	95	18.196689909778	0
10	96	18.396689909778	0
10	97	18.596689909778	0
10	98	18.796689909778	0
10	99	18.996689909778	0
10	100	19.01194622397	0
10	101	19.21194622397	0
10	102	19.41194622397	0
10	103	19.61194622397	0
10	104	19.81194622397	0
10	105	20.01194622397	0
10	106	20.21194622397	0
10	107	20.41194622397	0
10	108	20.61194622397	0
10	109	20.81194622397	0
10	110	21.01194622397	0
10	111	21.21194622397	0
10	112	21.41194622397	0
10	113	21.61194622397	0
10	114	21.81194622397	0
10	115	21.830383922784	0
10	116	22.030383922784	0
10	117	22.230383922784	0
10	118	22.430383922784	0
10	119	22.630383922784	0
10	120	22.830383922784	0
10	121	23.030383922784	0
10	122	23.230383922784	0
10	123	23.430383922784	0
10	124	23.630383922784	0
10	125	23.830383922784	0
10	126	23.866411732367	0
10	127	24.066411732367	0
10	128	24.266411732367	0
10	129	24.466411732367	0
10	130	24.666411732367	0
10	131	24.866411732367	0
10	132	25.066411732367	0
10	133	25.266411732367	0
10	134	25.466411732367	0
10	135	25.644562326486	0
10	136	25.844562326486	0
10	137	26.044562326486	0
10	138	26.244562326486	0
10	139	26.444562326486	0
10	140	26.644562326486	0
10	141	26.844562326486	0
10	142	27.044562326486	0
10	143	27.121886938233	0
10	144	27.321886938233	0
10	145	27.521886938233	0
10	146	27.721886938233	0
10	147	27.921886938233	0
10	148	28.121886938233	0
10	149	28.321886938233	0
10	150	28.521886938233	0
10	151	28.721886938233	0
10	152	28.921886938233	0
10	153	29.121886938233	0
10	154	29.321886938233	0
10	155	29.521886938233	0
10	156	29.721886938233	0
10	157	29.921886938233	0
10	158	30.098743846805	0
10	159	30.298743846805	0
10	160	30.498743846805	0
10	161	30.698743846805	0
10	162	30.898743846805	0
10	163	31.098743846805	0
10	164	31.298743846805	0
10	165	31.498743846805	0
10	166	31.698743846805	0
10	167	31.898743846805	0
10	168	31.930087249273	0
10	169	32.130087249273	0
10	170	32.330087249273	0
10	171	32.530087249273	0
10	172	32.730087249273	0
10	173	32.775843541696	0
10	174	32.975843541696	0
10	175	33.175843541696	0
10	176	33.375843541696	0
10	177	33.575843541696	0
10	178	33.775843541696	0
10	179	33.931983615991	0
10	180	34.131983615991	0
10	181	34.331983615991	0
10	182	34.531983615991	0
10	183	34.731983615991	0
10	184	34.931983615991	0
10	185	35.131983615991	0
10	186	35.331983615991	0
10	187	35.531983615991	0
10	188	35.731983615991	0
10	189	35.806342388152	0
10	190	36.006342388152	0
10	191	36.206342388152	0
10	192	36.406342388152	0
10	193	36.606342388152	0
10	194	36.806342388152	0
10	195	37.006342388152	0
10	196	37.206342388152	0
10	197	37.342405984141	0
10	198	37.542405984141	0
10	199	37.742405984141	0
10	200	37.942405984141	0
10	201	38.142405984141	0
10	202	38.342405984141	0
10	203	38.542405984141	0
10	204	38.742405984141	0
10	205	38.942405984141	0
10	206	39.142405984141	0
10	207	39.342405984141	0
10	208	39.542405984141	0
10	209	39.742405984141	0
10	210	39.903989408503	0
10	211	40.103989408503	0
10	212	40.303989408503	0
10	213	40.503989408503	0
10	214	40.703989408503	0
10	215	40.903989408503	0
10	216	41.103989408503	0
10	217	41.303989408503	0
10	218	41.503989408503	0
10	219	41.703989408503	0
10	220	41.903989408503	0
10	221	42.103989408503	0
10	222	42.259593876064	0
10	223	42.459593876064	0
10	224	42.659593876064	0
10	225	42.859593876064	0
10	226	43.059593876064	0
10	227	43.259593876064	0
10	228	43.459593876064	0
10	229	43.659593876064	0
10	230	43.859593876064	0
10	231	44.059593876064	0
10	232	44.259593876064	0
10	233	44.459593876064	0
10	234	44.659593876064	0
10	235	44.859593876064	0
10	236	45.059593876064	0
10	237	45.204961809121	0
10	238	45.404961809121	0
10	239	45.604961809121	0
10	240	45.804961809121	0
10	241	46.004961809121	0
10	242	46.204961809121	0
10	243	46.404961809121	0
10	244	46.604961809121	0
10	245	46.804961809121	0
10	246	46.911556296213	0
10	247	47.111556296213	0
10	248	47.311556296213	0
10	249	47.511556296213	0
10	250	47.711556296213	0
10	251	47.911556296213	0
10	252	48.111556296213	0
10	253	48.311556296213	0
10	254	48.511556296213	0
10	255	48.711556296213	0
10	256	48.911556296213	0
10	257	49.003861809867	0
10	258	49.203861809867	0
10	259	49.403861809867	0
10	260	49.603861809867	0
10	261	49.803861809867	0
10	262	50.003861809867	0
10	263	50.203861809867	0
10	264	50.403861809867	0
10	265	50.603861809867	0
10	266	50.803861809867	0
10	267	50.939696116652	0
10	268	51.139696116652	0
10	269	51.339696116652	0
10	270	51.539696116652	0
10	271	51.739696116652	0
10	272	51.939696116652	0
10	273	52.139696116652	0
10	274	52.339696116652	0
10	275	52.539696116652	0
10	276	52.739696116652	0
10	277	52.939696116652	0
10	278	53.139696116652	0
10	279	53.200410237734	0
10	280	53.400410237734	0
10	281	53.600410237734	0
10	282	53.800410237734	0
10	283	54.000410237734	0
10	284	54.200410237734	0
10	285	54.400410237734	0
10	286	54.600410237734	0
10	287	54.800410237734	0
10	288	55.000410237734	0
10	289	55.200410237734	0
10	290	55.202674036994	0
10	291	55.402674036994	0
10	292	55.602674036994	0
10	293	55.802674036994	0
10	294	56.002674036994	0
10	295	56.202674036994	0
10	296	56.402674036994	0
10	297	56.602674036994	0
10	298	56.802674036994	0
10	299	56.895437555546	0
10	300	57.095437555546	0
10	301	57.295437555546	0
10	302	57.495437555546	0
10	303	57.695437555546	0
10	304	57.895437555546	0
10	305	58.095437555546	0
10	306	58.295437555546	0
10	307	58.495437555546	0
10	308	58.546557083742	0
10	309	58.746557083742	0
10	310	58.946557083742	0
10	311	59.146557083742	0
10	312	59.346557083742	0
10	313	59.546557083742	0
10	314	59.746557083742	0
10	315	59.946557083742	0
10	316	60.146557083742	0
10	317	60.346557083742	0
10	318	60.546557083742	0
10	319	60.746557083742	0
10	320	60.835580776671	0
10	321	61.035580776671	0
10	322	61.235580776671	0
10	323	61.435580776671	0
10	324	61.635580776671	0
10	325	61.835580776671	0
10	326	62.035580776671	0
10	327	62.235580776671	0
10	328	62.324956722225	0
10	329	62.524956722225	0
10	330	62.724956722225	0
10	331	62.924956722225	0
10	332	63.124956722225	0
10	333	63.324956722225	0
10	334	63.524956722225	0
10	335	63.724956722225	0
10	336	63.924956722225	0
10	337	64.124956722225	0
10	338	64.324956722225	0
10	339	64.442250622383	0
10	340	64.642250622383	0
10	341	64.842250622383	0
10	342	65.042250622383	0
10	343	65.242250622383	0
10	344	65.442250622383	0
10	345	65.574840229717	0
10	346	65.774840229717	0
10	347	65.974840229717	0
10	348	66.174840229717	0
10	349	66.374840229717	0
10	350	66.574840229717	0
10	351	66.774840229717	0
10	352	66.974840229717	0
10	353	67.174840229717	0
10	354	67.374840229717	0
10	355	67.574840229717	0
10	356	67.612838271524	0
10	357	67.812838271524	0
10	358	68.012838271524	0
10	359	68.212838271524	0
10	360	68.412838271524	0
10	361	68.612838271524	0
10	362	68.812838271524	0
10	363	68.831944726161	0
10	364	69.031944726161	0
10	365	69.231944726161	0
10	366	69.431944726161	0
10	367	69.631944726161	0
10	368	69.831944726161	0
10	369	70.031944726161	0
10	370	70.231944726161	0
10	371	70.431944726161	0
10	372	70.631944726161	0
10	373	70.831944726161	0
10	374	70.957314365866	0
10	375	71.157314365866	0
10	376	71.357314365866	0
10	377	71.557314365866	0
10	378	71.757314365866	0
10	379	71.957314365866	0
10	380	72.157314365866	0
10	381	72.357314365866	0
10	382	72.557314365866	0
10	383	72.757314365866	0
10	384	72.957314365866	0
10	385	73.157314365866	0
10	386	73.357314365866	0
10	387	73.358347689172	0
10	388	73.558347689172	0
10	389	73.758347689172	0
10	390	73.958347689172	0
10	391	74.158347689172	0
10	392	74.358347689172	0
10	393	74.558347689172	0
10	394	74.758347689172	0
10	395	74.958347689172	0
10	396	75.158347689172	0
10	397	75.358347689172	0
10	398	75.558347689172	0
10	399	75.758347689172	0
10	400	75.958347689172	0
10	401	75.990497529382	0
10	402	76.190497529382	0
10	403	76.390497529382	0
10	404	76.590497529382	0
10	405	76.790497529382	0
10	406	76.990497529382	0
10	407	77.190497529382	0
10	408	77.390497529382	0
10	409	77.590497529382	0
10	410	77.790497529382	0
10	411	77.990497529382	0
10	412	78.190497529382	0
10	413	78.390497529382	0
10	414	78.453160859725	0
10	415	78.653160859725	0
10	416	78.853160859725	0
10	417	79.053160859725	0
10	418	79.253160859725	0
10	419	79.453160859725	0
10	420	79.653160859725	0
10	421	79.853160859725	0
10	422	79.944759163406	0
11	0	0	0
11	1	0.2	0
11	2	0.4	0
11	3	0.6	0
11	4	0.8	0
11	5	1	0
11	6	1.2	0
11	7	1.4	0
11	8	1.6	0
11	9	1.8	0
11	10	2	0
11	11	2.2	0
11	12	2.4	0
11	13	2.6	0
11	14	2.778364782811	0
11	15	2.978364782811	0
11	16	3.178364782811	0
11	17	3.378364782811	0
11	18	3.578364782811	0
11	19	3.778364782811	0
11	20	3.978364782811	0
11	21	4.178364782811	0
11	22	4.378364782811	0
11	23	4.578364782811	0
11	24	4.778364782811	0
11	25	4.878098814882	0
11	26	5.078098814882	0
11	27	5.278098814882	0
11	28	5.478098814882	0
11	29	5.678098814882	0
11	30	5.878098814882	0
11	31	6.078098814882	0
11	32	6.278098814882	0
11	33	6.478098814882	0
11	34	6.678098814882	0
11	35	6.768465174231	0
11	36	6.968465174231	0
11	37	7.168465174231	0
11	38	7.368465174231	0
11	39	7.568465174231	0
11	40	7.768465174231	0
11	41	7.968465174231	0
11	42	8.168465174231	0
11	43	8.368465174231	0
11	44	8.568465174231	0
11	45	8.768465174231	0
11	46	8.857664414799	0
11	47	9.057664414799	0
11	48	9.257664414799	0
11	49	9.457664414799	0
11	50	9.657664414799	0
11	51	9.857664414799	0
11	52	10.057664414799	0
11	53	10.257664414799	0
11	54	10.457664414799	0
11	55	10.657664414799	0
11	56	10.857664414799	0
11	57	11.057664414799	0
11	58	11.098723478311	0
11	59	11.298723478311	0
11	60	11.498723478311	0
11	61	11.698723478311	0
11	62	11.898723478311	0
11	63	12.098723478311	0
11	64	12.298723478311	0
11	65	12.498723478311	0
11	66	12.698723478311	0
11	67	12.701763125277	0
11	68	12.901763125277	0
11	69	13.101763125277	0
11	70	13.301763125277	0
11	71	13.501763125277	0
11	72	13.701763125277	0
11	73	13.901763125277	0
11	74	14.101763125277	0
11	75	14.301763125277	0
11	76	14.501763125277	0
11	77	14.701763125277	0
11	78	14.895034535177	0
11	79	15.095034535177	0
11	80	15.295034535177	0
11	81	15.495034535177	0
11	82	15.695034535177	0
11	83	15.895034535177	0
11	84	16.095034535177	0
11	85	16.295034535177	0
11	86	16.495034535177	0
11	87	16.695034535177	0
11	88	16.895034535177	0
11	89	17.095034535177	0
11	90	17.196689909778	0
11	91	17.396689909778	0
11	92	17.596689909778	0
11	93	17.796689909778	0
11	94	17.996689909778	0
11	95	18.196689909778	0
11	96	18.396689909778	0
11	97	18.596689909778	0
11	98	18.796689909778	0
11	99	18.996689909778	0
11	100	19.01194622397	0
11	101	19.21194622397	0
11	102	19.41194622397	0
11	103	19.61194622397	0
11	104	19.81194622397	0
11	105	20.01194622397	0
11	106	20.21194622397	0
11	107	20.41194622397	0
11	108	20.61194622397	0
11	109	20.81194622397	0
11	110	21.01194622397	0
11	111	21.21194622397	0
11	112	21.41194622397	0
11	113	21.61194622397	0
11	114	21.81194622397	0
11	115	21.830383922784	0
11	116	22.030383922784	0
11	117	22.230383922784	0
11	118	22.430383922784	0
11	119	22.630383922784	0
11	120	22.830383922784	0
11	121	23.030383922784	0
11	122	23.230383922784	0
11	123	23.430383922784	0
11	124	23.630383922784	0
11	125	23.830383922784	0
11	126	23.866411732367	0
11	127	24.066411732367	0
11	128	24.266411732367	0
11	129	24.466411732367	0
11	130	24.666411732367	0
11	131	24.866411732367	0
11	132	25.066411732367	0
11	133	25.266411732367	0
11	134	25.466411732367	0
11	135	25.644562326486	0
11	136	25.844562326486	0
11	137	26.044562326486	0
11	138	26.244562326486	0
11	139	26.444562326486	0
11	140	26.644562326486	0
11	141	26.844562326486	0
11	142	27.044562326486	0
11	143	27.121886938233	0
11	144	27.321886938233	0
11	145	27.521886938233	0
11	146	27.721886938233	0
11	147	27.921886938233	0
11	148	28.121886938233	0
11	149	28.321886938233	0
11	150	28.521886938233	0
11	151	28.721886938233	0
11	152	28.921886938233	0
11	153	29.121886938233	0
11	154	29.321886938233	0
11	155	29.521886938233	0
11	156	29.721886938233	0
11	157	29.921886938233	0
11	158	30.098743846805	0
11	159	30.298743846805	0
11	160	30.498743846805	0
11	161	30.698743846805	0
11	162	30.898743846805	0
11	163	31.098743846805	0
11	164	31.298743846805	0
11	165	31.498743846805	0
11	166	31.698743846805	0
11	167	31.898743846805	0
11	168	31.930087249273	0
11	169	32.130087249273	0
11	170	32.330087249273	0
11	171	32.530087249273	0
11	172	32.730087249273	0
11	173	32.775843541696	0
11	174	32.975843541696	0
11	175	33.175843541696	0
11	176	33.375843541696	0
11	177	33.575843541696	0
11	178	33.775843541696	0
11	179	33.931983615991	0
11	180	34.131983615991	0
11	181	34.331983615991	0
11	182	34.531983615991	0
11	183	34.731983615991	0
11	184	34.931983615991	0
11	185	35.131983615991	0
11	186	35.331983615991	0
11	187	35.531983615991	0
11	188	35.731983615991	0
11	189	35.806342388152	0
11	190	36.006342388152	0
11	191	36.206342388152	0
11	192	36.406342388152	0
11	193	36.606342388152	0
11	194	36.806342388152	0
11	195	37.006342388152	0
11	196	37.206342388152	0
11	197	37.342405984141	0
11	198	37.542405984141	0
11	199	37.742405984141	0
11	200	37.942405984141	0
11	201	38.142405984141	0
11	202	38.342405984141	0
11	203	38.542405984141	0
11	204	38.742405984141	0
11	205	38.942405984141	0
11	206	39.142405984141	0
11	207	39.342405984141	0
11	208	39.542405984141	0
11	209	39.742405984141	0
11	210	39.903989408503	0
11	211	40.103989408503	0
11	212	40.303989408503	0
11	213	40.503989408503	0
11	214	40.703989408503	0
11	215	40.903989408503	0
11	216	41.103989408503	0
11	217	41.303989408503	0
11	218	41.503989408503	0
11	219	41.703989408503	0
11	220	41.903989408503	0
11	221	42.103989408503	0
11	222	42.259593876064	0
11	223	42.459593876064	0
11	224	42.659593876064	0
11	225	42.859593876064	0
11	226	43.059593876064	0
11	227	43.259593876064	0
11	228	43.459593876064	0
11	229	43.659593876064	0
11	230	43.859593876064	0
11	231	44.059593876064	0
11	232	44.259593876064	0
11	233	44.459593876064	0
11	234	44.659593876064	0
11	235	44.859593876064	0
11	236	45.059593876064	0
11	237	45.204961809121	0
11	238	45.404961809121	0
11	239	45.604961809121	0
11	240	45.804961809121	0
11	241	46.004961809121	0
11	242	46.204961809121	0
11	243	46.404961809121	0
11	244	46.604961809121	0
11	245	46.804961809121	0
11	246	46.911556296213	0
11	247	47.111556296213	0
11	248	47.311556296213	0
11	249	47.511556296213	0
11	250	47.711556296213	0
11	251	47.911556296213	0
11	252	48.111556296213	0
11	253	48.311556296213	0
11	254	48.511556296213	0
11	255	48.711556296213	0
11	256	48.911556296213	0
11	257	49.003861809867	0
11	258	49.203861809867	0
11	259	49.403861809867	0
11	260	49.603861809867	0
11	261	49.803861809867	0
11	262	50.003861809867	0
11	263	50.203861809867	0
11	264	50.403861809867	0
11	265	50.603861809867	0
11	266	50.803861809867	0
11	267	50.939696116652	0
11	268	51.139696116652	0
11	269	51.339696116652	0
11	270	51.539696116652	0
11	271	51.739696116652	0
11	272	51.939696116652	0
11	273	52.139696116652	0
11	274	52.339696116652	0
11	275	52.539696116652	0
11	276	52.739696116652	0
11	277	52.939696116652	0
11	278	53.139696116652	0
11	279	53.200410237734	0
11	280	53.400410237734	0
11	281	53.600410237734	0
11	282	53.800410237734	0
11	283	54.000410237734	0
11	284	54.200410237734	0
11	285	54.400410237734	0
11	286	54.600410237734	0
11	287	54.800410237734	0
11	288	55.000410237734	0
11	289	55.200410237734	0
11	290	55.202674036994	0
11	291	55.402674036994	0
11	292	55.602674036994	0
11	293	55.802674036994	0
11	294	56.002674036994	0
11	295	56.202674036994	0
11	296	56.402674036994	0
11	297	56.602674036994	0
11	298	56.802674036994	0
11	299	56.895437555546	0
11	300	57.095437555546	0
11	301	57.295437555546	0
11	302	57.495437555546	0
11	303	57.695437555546	0
11	304	57.895437555546	0
11	305	58.095437555546	0
11	306	58.295437555546	0
11	307	58.495437555546	0
11	308	58.546557083742	0
11	309	58.746557083742	0
11	310	58.946557083742	0
11	311	59.146557083742	0
11	312	59.346557083742	0
11	313	59.546557083742	0
11	314	59.746557083742	0
11	315	59.946557083742	0
11	316	60.146557083742	0
11	317	60.346557083742	0
11	318	60.546557083742	0
11	319	60.746557083742	0
11	320	60.835580776671	0
11	321	61.035580776671	0
11	322	61.235580776671	0
11	323	61.435580776671	0
11	324	61.635580776671	0
11	325	61.835580776671	0
11	326	62.035580776671	0
11	327	62.235580776671	0
11	328	62.324956722225	0
11	329	62.524956722225	0
11	330	62.724956722225	0
11	331	62.924956722225	0
11	332	63.124956722225	0
11	333	63.324956722225	0
11	334	63.524956722225	0
11	335	63.724956722225	0
11	336	63.924956722225	0
11	337	64.124956722225	0
11	338	64.324956722225	0
11	339	64.442250622383	0
11	340	64.642250622383	0
11	341	64.842250622383	0
11	342	65.042250622383	0
11	343	65.242250622383	0
11	344	65.442250622383	0
11	345	65.574840229717	0
11	346	65.774840229717	0
11	347	65.974840229717	0
11	348	66.174840229717	0
11	349	66.374840229717	0
11	350	66.574840229717	0
11	351	66.774840229717	0
11	352	66.974840229717	0
11	353	67.174840229717	0
11	354	67.374840229717	0
11	355	67.574840229717	0
11	356	67.612838271524	0
11	357	67.812838271524	0
11	358	68.012838271524	0
11	359	68.212838271524	0
11	360	68.412838271524	0
11	361	68.612838271524	0
11	362	68.812838271524	0
11	363	68.831944726161	0
11	364	69.031944726161	0
11	365	69.231944726161	0
11	366	69.431944726161	0
11	367	69.631944726161	0
11	368	69.831944726161	0
11	369	70.031944726161	0
11	370	70.231944726161	0
11	371	70.431944726161	0
11	372	70.631944726161	0
11	373	70.831944726161	0
11	374	70.957314365866	0
11	375	71.157314365866	0
11	376	71.357314365866	0
11	377	71.557314365866	0
11	378	71.757314365866	0
11	379	71.957314365866	0
11	380	72.157314365866	0
11	381	72.357314365866	0
11	382	72.557314365866	0
11	383	72.757314365866	0
11	384	72.957314365866	0
11	385	73.157314365866	0
11	386	73.357314365866	0
11	387	73.358347689172	0
11	388	73.558347689172	0
11	389	73.758347689172	0
11	390	73.958347689172	0
11	391	74.158347689172	0
11	392	74.358347689172	0
11	393	74.558347689172	0
11	394	74.758347689172	0
11	395	74.958347689172	0
11	396	75.158347689172	0
11	397	75.358347689172	0
11	398	75.558347689172	0
11	399	75.758347689172	0
11	400	75.958347689172	0
11	401	75.990497529382	0
11	402	76.190497529382	0
11	403	76.390497529382	0
11	404	76.590497529382	0
11	405	76.790497529382	0
11	406	76.990497529382	0
11	407	77.190497529382	0
11	408	77.390497529382	0
11	409	77.590497529382	0
11	410	77.790497529382	0
11	411	77.990497529382	0
11	412	78.190497529382	0
11	413	78.390497529382	0
11	414	78.453160859725	0
11	415	78.653160859725	0
11	416	78.853160859725	0
11	417	79.053160859725	0
11	418	79.253160859725	0
11	419	79.453160859725	0
11	420	79.653160859725	0
11	421	79.853160859725	0
11	422	79.944759163406	0
12	0	0	0
12	1	0.2	0
12	2	0.4	0
12	3	0.6	0
12	4	0.8	0
12	5	1	0
12	6	1.2	0
12	7	1.4	0
12	8	1.6	0
12	9	1.8	0
12	10	2	0
12	11	2.2	0
12	12	2.4	0
12	13	2.6	0
12	14	2.778364782811	0
12	15	2.978364782811	0
12	16	3.178364782811	0
12	17	3.378364782811	0
12	18	3.578364782811	0
12	19	3.778364782811	0
12	20	3.978364782811	0
12	21	4.178364782811	0
12	22	4.378364782811	0
12	23	4.578364782811	0
12	24	4.778364782811	0
12	25	4.878098814882	0
12	26	5.078098814882	0
12	27	5.278098814882	0
12	28	5.478098814882	0
12	29	5.678098814882	0
12	30	5.878098814882	0
12	31	6.078098814882	0
12	32	6.278098814882	0
12	33	6.478098814882	0
12	34	6.678098814882	0
12	35	6.768465174231	0
12	36	6.968465174231	0
12	37	7.168465174231	0
12	38	7.368465174231	0
12	39	7.568465174231	0
12	40	7.768465174231	0
12	41	7.968465174231	0
12	42	8.168465174231	0
12	43	8.368465174231	0
12	44	8.568465174231	0
12	45	8.768465174231	0
12	46	8.857664414799	0
12	47	9.057664414799	0
12	48	9.257664414799	0
12	49	9.457664414799	0
12	50	9.657664414799	0
12	51	9.857664414799	0
12	52	10.057664414799	0
12	53	10.257664414799	0
12	54	10.457664414799	0
12	55	10.657664414799	0
12	56	10.857664414799	0
12	57	11.057664414799	0
12	58	11.098723478311	0
12	59	11.298723478311	0
12	60	11.498723478311	0
12	61	11.698723478311	0
12	62	11.898723478311	0
12	63	12.098723478311	0
12	64	12.298723478311	0
12	65	12.498723478311	0
12	66	12.698723478311	0
12	67	12.701763125277	0
12	68	12.901763125277	0
12	69	13.101763125277	0
12	70	13.301763125277	0
12	71	13.501763125277	0
12	72	13.701763125277	0
12	73	13.901763125277	0
12	74	14.101763125277	0
12	75	14.301763125277	0
12	76	14.501763125277	0
12	77	14.701763125277	0
12	78	14.895034535177	0
12	79	15.095034535177	0
12	80	15.295034535177	0
12	81	15.495034535177	0
12	82	15.695034535177	0
12	83	15.895034535177	0
12	84	16.095034535177	0
12	85	16.295034535177	0
12	86	16.495034535177	0
12	87	16.695034535177	0
12	88	16.895034535177	0
12	89	17.095034535177	0
12	90	17.196689909778	0
12	91	17.396689909778	0
12	92	17.596689909778	0
12	93	17.796689909778	0
12	94	17.996689909778	0
12	95	18.196689909778	0
12	96	18.396689909778	0
12	97	18.596689909778	0
12	98	18.796689909778	0
12	99	18.996689909778	0
12	100	19.01194622397	0
12	101	19.21194622397	0
12	102	19.41194622397	0
12	103	19.61194622397	0
12	104	19.81194622397	0
12	105	20.01194622397	0
12	106	20.21194622397	0
12	107	20.41194622397	0
12	108	20.61194622397	0
12	109	20.81194622397	0
12	110	21.01194622397	0
12	111	21.21194622397	0
12	112	21.41194622397	0
12	113	21.61194622397	0
12	114	21.81194622397	0
12	115	21.830383922784	0
12	116	22.030383922784	0
12	117	22.230383922784	0
12	118	22.430383922784	0
12	119	22.630383922784	0
12	120	22.830383922784	0
12	121	23.030383922784	0
12	122	23.230383922784	0
12	123	23.430383922784	0
12	124	23.630383922784	0
12	125	23.830383922784	0
12	126	23.866411732367	0
12	127	24.066411732367	0
12	128	24.266411732367	0
12	129	24.466411732367	0
12	130	24.666411732367	0
12	131	24.866411732367	0
12	132	25.066411732367	0
12	133	25.266411732367	0
12	134	25.466411732367	0
12	135	25.644562326486	0
12	136	25.844562326486	0
12	137	26.044562326486	0
12	138	26.244562326486	0
12	139	26.444562326486	0
12	140	26.644562326486	0
12	141	26.844562326486	0
12	142	27.044562326486	0
12	143	27.121886938233	0
12	144	27.321886938233	0
12	145	27.521886938233	0
12	146	27.721886938233	0
12	147	27.921886938233	0
12	148	28.121886938233	0
12	149	28.321886938233	0
12	150	28.521886938233	0
12	151	28.721886938233	0
12	152	28.921886938233	0
12	153	29.121886938233	0
12	154	29.321886938233	0
12	155	29.521886938233	0
12	156	29.721886938233	0
12	157	29.921886938233	0
12	158	30.098743846805	0
12	159	30.298743846805	0
12	160	30.498743846805	0
12	161	30.698743846805	0
12	162	30.898743846805	0
12	163	31.098743846805	0
12	164	31.298743846805	0
12	165	31.498743846805	0
12	166	31.698743846805	0
12	167	31.898743846805	0