version 3
run CNPF-35-20240912-08:19:28-54225
attr configname CNPF
attr datetime 20240912-08:19:28
attr datetimef 20240912-081928
attr experiment CNPF
attr inifile omnetpp.ini
attr iterationvars $0=30
attr iterationvarsd 30
attr iterationvarsf 30-
attr measurement $0=30
attr network ParcelDeliveryNetwork
attr processid 54225
attr repetition 5
attr replication #5
attr resultdir results
attr runnumber 35
attr seedset 35
config image-path ../inet/images
config network ParcelDeliveryNetwork
config description "1 drones, 30 destinations, 30 parcels, "
config *.numdrones 1
config **.drone*.mobility.typename DroneNetMob
config **.drone[*].mobility.ndst 30
config **.drone[*].mobility.nd 8
config **.drone[*].mobility.npar 30
config **.drone[*].mobility.initFromDisplayString false
config **.drone[*].mobility.changeInterval "truncnormal(2s, 0.5s)"
config **.drone[*].mobility.angleDelta "normal(0deg, 30deg)"
config **.drone[*].mobility.speed 10mps
config **.drone[*].mobility.remainingBattery 480
config **.drone[*].mobility.weightCapacity 100
config **.drone[*].mobility.parcelSelectionMethod 0
config **.drone[*].mobility.initialX 0m
config **.drone[*].mobility.initialY 0m
config **.drone[*].mobility.initialZ 0m
config repeat 10
config sim-time-limit 80second
config **.constraintAreaMinX 0m
config **.constraintAreaMinY 0m
config **.constraintAreaMinZ 0m
config **.constraintAreaMaxX 600m
config **.constraintAreaMaxY 400m
config **.constraintAreaMaxZ 0m
config **.updateInterval 0.2s

vector 0 ParcelDeliveryNetwork.gcs.wlan[0].mac.dcf frameSequenceActive:vector ETV
attr autoWarmupFilter false
attr interpolationmode sample-hold
attr recordingmode vector
attr source warmup(count(frameSequenceStarted)-count(frameSequenceFinished))
attr title "frame sequence active"
vector 1 ParcelDeliveryNetwork.gcs.wlan[0].mac.dcf.channelAccess.pendingQueue queueLength:vector ETV
attr autoWarmupFilter false
attr interpolationmode sample-hold
attr recordingmode vector
attr source "warmup(atomic(constant0(packetPushEnded) + count(packetPushStarted) - count(packetPulled) - count(packetRemoved) - count(packetDropped)))"
attr title "queue length"
attr unit pk
vector 2 ParcelDeliveryNetwork.gcs.wlan[0].mac.dcf.channelAccess.pendingQueue queueBitLength:vector ETV
attr autoWarmupFilter false
attr interpolationmode sample-hold
attr recordingmode vector
attr source "warmup(atomic(constant0(packetPushEnded) + sum(packetLength(packetPushStarted)) - sum(packetLength(packetPulled)) - sum(packetLength(packetRemoved)) - sum(packetLength(packetDropped))))"
attr title "queue bit length"
attr unit b
vector 3 ParcelDeliveryNetwork.gcs.wlan[0].mac.dcf.channelAccess.inProgressFrames queueLength:vector ETV
attr autoWarmupFilter false
attr interpolationmode sample-hold
attr recordingmode vector
attr source "warmup(count(packetEnqueued) - count(packetDequeued))"
attr title "queue length"
vector 4 ParcelDeliveryNetwork.gcs.wlan[0].mac.dcf.channelAccess.contention backoffActive:vector ETV
attr autoWarmupFilter false
attr interpolationmode sample-hold
attr recordingmode vector
attr source warmup(count(backoffStarted)-count(backoffStopped))
attr title "backoff active"
vector 5 ParcelDeliveryNetwork.gcs.udp passedUpPk:vector(count) ETV
attr interpolationmode none
attr recordingmode vector(count)
attr source packetSentToUpper
attr title "packets passed up, count"
vector 6 ParcelDeliveryNetwork.gcs.udp droppedPkWrongPort:vector(count) ETV
attr interpolationmode none
attr recordingmode vector(count)
attr source packetDropReasonIsNoPortFound(packetDropped)
attr title "packets dropped (wrong port), count"
vector 7 ParcelDeliveryNetwork.gcs.udp droppedPkBadChecksum:vector(count) ETV
attr interpolationmode none
attr recordingmode vector(count)
attr source packetDropReasonIsIncorrectlyReceived(packetDropped)
attr title "packets dropped (checksum error), count"
vector 8 ParcelDeliveryNetwork.gcs.wlan[0].radio radioMode:vector ETV
attr interpolationmode sample-hold
attr recordingmode vector
attr source radioModeChanged
attr title "Radio mode"
vector 9 ParcelDeliveryNetwork.gcs.wlan[0].radio radioChannel:vector ETV
attr interpolationmode sample-hold
attr recordingmode vector
attr source radioChannelChanged
attr title "Radio channel"
vector 10 ParcelDeliveryNetwork.drone[0] coordX:vector ETV
attr interpolationmode linear
attr recordingmode vector
attr source xCoord(mobilityPos(mobilityStateChanged))
attr title "coord X"
vector 11 ParcelDeliveryNetwork.drone[0] coordY:vector ETV
attr interpolationmode linear
attr recordingmode vector
attr source yCoord(mobilityPos(mobilityStateChanged))
attr title "coord Y"
vector 12 ParcelDeliveryNetwork.drone[0] coordZ:vector ETV
attr interpolationmode linear
attr recordingmode vector
attr source zCoord(mobilityPos(mobilityStateChanged))
attr title "coord Z"
vector 13 ParcelDeliveryNetwork.gcs.wlan[0].radio receptionState:vector ETV
attr interpolationmode sample-hold
attr recordingmode vector
attr source receptionStateChanged
attr title "Radio reception state"
vector 14 ParcelDeliveryNetwork.gcs.wlan[0].mac.dcf.channelAccess.contention stateChanged:vector ETV
attr enum IDLE,DEFER,IFS_AND_BACKOFF
attr interpolationmode none
attr recordingmode vector
attr title "contention state changed"
attr type enum
vector 15 ParcelDeliveryNetwork.gcs.wlan[0].mac.dcf.recoveryProcedure contentionWindowChanged:vector ETV
attr interpolationmode sample-hold
attr recordingmode vector
attr title "contention window"
0	0	0	0
0	0	0	0
1	0	0	0
1	0	0	0
1	0	0	0
1	0	0	0
1	0	0	0
2	0	0	0
2	0	0	0
2	0	0	0
2	0	0	0
2	0	0	0
3	0	0	0
3	0	0	0
4	0	0	0
4	0	0	0
5	0	0	0
6	0	0	0
7	0	0	0
8	0	0	0
8	0	0	0
8	0	0	2
9	0	0	0
10	0	0	0
10	1	0.2	0
10	2	0.4	0
10	3	0.6	0
10	4	0.8	0
10	5	1	0
10	6	1.2	0
10	7	1.4	0
10	8	1.6	0
10	9	1.8	0
10	10	2	0
10	11	2.008874531288	0
10	12	2.208874531288	0
10	13	2.408874531288	0
10	14	2.608874531288	0
10	15	2.808874531288	0
10	16	3.008874531288	0
10	17	3.208874531288	0
10	18	3.408874531288	0
10	19	3.608874531288	0
10	20	3.808874531288	0
10	21	4.008874531288	0
10	22	4.208874531288	0
10	23	4.405668654228	0
10	24	4.605668654228	0
10	25	4.805668654228	0
10	26	5.005668654228	0
10	27	5.205668654228	0
10	28	5.405668654228	0
10	29	5.605668654228	0
10	30	5.805668654228	0
10	31	6.005668654228	0
10	32	6.099321834452	0
10	33	6.299321834452	0
10	34	6.499321834452	0
10	35	6.699321834452	0
10	36	6.899321834452	0
10	37	7.099321834452	0
10	38	7.299321834452	0
10	39	7.499321834452	0
10	40	7.699321834452	0
10	41	7.857721950554	0
10	42	8.057721950554	0
10	43	8.257721950554	0
10	44	8.457721950554	0
10	45	8.657721950554	0
10	46	8.857721950554	0
10	47	9.057721950554	0
10	48	9.257721950554	0
10	49	9.302907358191	0
10	50	9.502907358191	0
10	51	9.702907358191	0
10	52	9.902907358191	0
10	53	10.102907358191	0
10	54	10.302907358191	0
10	55	10.502907358191	0
10	56	10.702907358191	0
10	57	10.902907358191	0
10	58	11.102907358191	0
10	59	11.221838890822	0
10	60	11.421838890822	0
10	61	11.621838890822	0
10	62	11.821838890822	0
10	63	12.021838890822	0
10	64	12.221838890822	0
10	65	12.421838890822	0
10	66	12.621838890822	0
10	67	12.821838890822	0
10	68	13.021838890822	0
10	69	13.221838890822	0
10	70	13.421838890822	0
10	71	13.621838890822	0
10	72	13.735621410191	0
10	73	13.935621410191	0
10	74	14.135621410191	0
10	75	14.335621410191	0
10	76	14.535621410191	0
10	77	14.735621410191	0
10	78	14.935621410191	0
10	79	15.135621410191	0
10	80	15.335621410191	0
10	81	15.535621410191	0
10	82	15.735621410191	0
10	83	15.935621410191	0
10	84	16.135621410191	0
10	85	16.335621410191	0
10	86	16.488963017049	0
10	87	16.688963017049	0
10	88	16.888963017049	0
10	89	17.088963017049	0
10	90	17.288963017049	0
10	91	17.488963017049	0
10	92	17.688963017049	0
10	93	17.888963017049	0
10	94	18.088963017049	0
10	95	18.288963017049	0
10	96	18.488963017049	0
10	97	18.661003131245	0
10	98	18.861003131245	0
10	99	19.061003131245	0
10	100	19.261003131245	0
10	101	19.461003131245	0
10	102	19.661003131245	0
10	103	19.861003131245	0
10	104	20.061003131245	0
10	105	20.261003131245	0
10	106	20.461003131245	0
10	107	20.661003131245	0
10	108	20.71621214714	0
10	109	20.91621214714	0
10	110	21.11621214714	0
10	111	21.31621214714	0
10	112	21.51621214714	0
10	113	21.71621214714	0
10	114	21.91621214714	0
10	115	22.11621214714	0
10	116	22.31621214714	0
10	117	22.51621214714	0
10	118	22.71621214714	0
10	119	22.91621214714	0
10	120	23.11621214714	0
10	121	23.31621214714	0
10	122	23.51621214714	0
10	123	23.71621214714	0
10	124	23.797996152218	0
10	125	23.997996152218	0
10	126	24.197996152218	0
10	127	24.397996152218	0
10	128	24.597996152218	0
10	129	24.797996152218	0
10	130	24.997996152218	0
10	131	25.197996152218	0
10	132	25.397996152218	0
10	133	25.597996152218	0
10	134	25.797996152218	0
10	135	25.997996152218	0
10	136	26.07368352484	0
10	137	26.27368352484	0
10	138	26.47368352484	0
10	139	26.67368352484	0
10	140	26.87368352484	0
10	141	27.07368352484	0
10	142	27.27368352484	0
10	143	27.47368352484	0
10	144	27.67368352484	0
10	145	27.87368352484	0
10	146	27.975288420957	0
10	147	28.175288420957	0
10	148	28.375288420957	0
10	149	28.575288420957	0
10	150	28.775288420957	0
10	151	28.836063354994	0
10	152	29.036063354994	0
10	153	29.236063354994	0
10	154	29.436063354994	0
10	155	29.636063354994	0
10	156	29.836063354994	0
10	157	30.036063354994	0
10	158	30.236063354994	0
10	159	30.436063354994	0
10	160	30.636063354994	0
10	161	30.836063354994	0
10	162	31.036063354994	0
10	163	31.156723110088	0
10	164	31.356723110088	0
10	165	31.556723110088	0
10	166	31.756723110088	0
10	167	31.956723110088	0
10	168	32.156723110088	0
10	169	32.356723110088	0
10	170	32.556723110088	0
10	171	32.756723110088	0
10	172	32.956723110088	0
10	173	33.156723110088	0
10	174	33.356723110088	0
10	175	33.556723110088	0
10	176	33.756723110088	0
10	177	33.956723110088	0
10	178	34.156723110088	0
10	179	34.356723110088	0
10	180	34.556723110088	0
10	181	34.634216533546	0
10	182	34.834216533546	0
10	183	35.034216533546	0
10	184	35.234216533546	0
10	185	35.434216533546	0
10	186	35.634216533546	0
10	187	35.834216533546	0
10	188	36.034216533546	0
10	189	36.173265565715	0
10	190	36.373265565715	0
10	191	36.573265565715	0
10	192	36.773265565715	0
10	193	36.973265565715	0
10	194	37.173265565715	0
10	195	37.373265565715	0
10	196	37.573265565715	0
10	197	37.773265565715	0
10	198	37.973265565715	0
10	199	38.09406354607	0
10	200	38.29406354607	0
10	201	38.49406354607	0
10	202	38.69406354607	0
10	203	38.89406354607	0
10	204	39.09406354607	0
10	205	39.29406354607	0
10	206	39.49406354607	0
10	207	39.69406354607	0
10	208	39.819338737458	0
10	209	40.019338737458	0
10	210	40.219338737458	0
10	211	40.419338737458	0
10	212	40.619338737458	0
10	213	40.819338737458	0
10	214	41.019338737458	0
10	215	41.219338737458	0
10	216	41.419338737458	0
10	217	41.619338737458	0
10	218	41.819338737458	0
10	219	42.019338737458	0
10	220	42.173152870002	0
10	221	42.373152870002	0
10	222	42.573152870002	0
10	223	42.773152870002	0
10	224	42.973152870002	0
10	225	43.173152870002	0
10	226	43.373152870002	0
10	227	43.573152870002	0
10	228	43.773152870002	0
10	229	43.973152870002	0
10	230	44.173152870002	0
10	231	44.21723347076	0
10	232	44.41723347076	0
10	233	44.61723347076	0
10	234	44.81723347076	0
10	235	45.01723347076	0
10	236	45.21723347076	0
10	237	45.41723347076	0
10	238	45.61723347076	0
10	239	45.81723347076	0
10	240	46.01723347076	0
10	241	46.11506739887	0
10	242	46.31506739887	0
10	243	46.51506739887	0
10	244	46.71506739887	0
10	245	46.91506739887	0
10	246	47.11506739887	0
10	247	47.31506739887	0
10	248	47.51506739887	0
10	249	47.70835006517	0
10	250	47.90835006517	0
10	251	48.10835006517	0
10	252	48.30835006517	0
10	253	48.50835006517	0
10	254	48.70835006517	0
10	255	48.90835006517	0
10	256	49.10835006517	0
10	257	49.30835006517	0
10	258	49.50835006517	0
10	259	49.70835006517	0
10	260	49.715358651639	0
10	261	49.915358651639	0
10	262	50.115358651639	0
10	263	50.315358651639	0
10	264	50.515358651639	0
10	265	50.715358651639	0
10	266	50.915358651639	0
10	267	51.115358651639	0
10	268	51.315358651639	0
10	269	51.515358651639	0
10	270	51.525605808973	0
10	271	51.725605808973	0
10	272	51.925605808973	0
10	273	52.125605808973	0
10	274	52.325605808973	0
10	275	52.525605808973	0
10	276	52.725605808973	0
10	277	52.925605808973	0
10	278	53.125605808973	0
10	279	53.325605808973	0
10	280	53.525605808973	0
10	281	53.725605808973	0
10	282	53.925605808973	0
10	283	54.125605808973	0
10	284	54.325605808973	0
10	285	54.525605808973	0
10	286	54.537585018431	0
10	287	54.737585018431	0
10	288	54.937585018431	0
10	289	55.137585018431	0
10	290	55.337585018431	0
10	291	55.537585018431	0
10	292	55.737585018431	0
10	293	55.937585018431	0
10	294	56.03765297055	0
10	295	56.23765297055	0
10	296	56.43765297055	0
10	297	56.63765297055	0
10	298	56.83765297055	0
10	299	57.03765297055	0
10	300	57.23765297055	0
10	301	57.43765297055	0
10	302	57.63765297055	0
10	303	57.835653366298	0
10	304	58.035653366298	0
10	305	58.235653366298	0
10	306	58.435653366298	0
10	307	58.635653366298	0
10	308	58.835653366298	0
10	309	59.035653366298	0
10	310	59.235653366298	0
10	311	59.435653366298	0
10	312	59.635653366298	0
10	313	59.835653366298	0
10	314	60.035653366298	0
10	315	60.070620107081	0
10	316	60.270620107081	0
10	317	60.470620107081	0
10	318	60.670620107081	0
10	319	60.870620107081	0
10	320	61.070620107081	0
10	321	61.270620107081	0
10	322	61.470620107081	0
10	323	61.562094842018	0
10	324	61.762094842018	0
10	325	61.962094842018	0
10	326	62.162094842018	0
10	327	62.362094842018	0
10	328	62.562094842018	0
10	329	62.762094842018	0
10	330	62.962094842018	0
10	331	63.162094842018	0
10	332	63.362094842018	0
10	333	63.562094842018	0
10	334	63.762094842018	0
10	335	63.962094842018	0
10	336	64.162094842018	0
10	337	64.362094842018	0
10	338	64.512245352061	0
10	339	64.712245352061	0
10	340	64.912245352061	0
10	341	65.112245352061	0
10	342	65.312245352061	0
10	343	65.512245352061	0
10	344	65.712245352061	0
10	345	65.912245352061	0
10	346	66.112245352061	0
10	347	66.312245352061	0
10	348	66.512245352061	0
10	349	66.712245352061	0
10	350	66.77779334782	0
10	351	66.97779334782	0
10	352	67.17779334782	0
10	353	67.37779334782	0
10	354	67.57779334782	0
10	355	67.77779334782	0
10	356	67.97779334782	0
10	357	68.17779334782	0
10	358	68.37779334782	0
10	359	68.57779334782	0
10	360	68.77779334782	0
10	361	68.97779334782	0
10	362	69.17779334782	0
10	363	69.283340872417	0
10	364	69.483340872417	0
10	365	69.683340872417	0
10	366	69.883340872417	0
10	367	70.083340872417	0
10	368	70.283340872417	0
10	369	70.483340872417	0
10	370	70.683340872417	0
10	371	70.883340872417	0
10	372	71.083340872417	0
10	373	71.283340872417	0
10	374	71.483340872417	0
10	375	71.683340872417	0
10	376	71.810471486877	0
10	377	72.010471486877	0
10	378	72.210471486877	0
10	379	72.410471486877	0
10	380	72.521560910053	0
10	381	72.721560910053	0
10	382	72.921560910053	0
10	383	73.121560910053	0
10	384	73.321560910053	0
10	385	73.521560910053	0
10	386	73.721560910053	0
10	387	73.921560910053	0
10	388	74.121560910053	0
10	389	74.321560910053	0
10	390	74.521560910053	0
10	391	74.721560910053	0
10	392	74.921560910053	0
10	393	75.121560910053	0
10	394	75.190601655136	0
10	395	75.390601655136	0
10	396	75.590601655136	0
10	397	75.790601655136	0
10	398	75.990601655136	0
10	399	76.190601655136	0
10	400	76.390601655136	0
10	401	76.590601655136	0
10	402	76.790601655136	0
10	403	76.990601655136	0
10	404	77.190601655136	0
10	405	77.390601655136	0
10	406	77.590601655136	0
10	407	77.790601655136	0
10	408	77.990601655136	0
10	409	78.000411475229	0
10	410	78.200411475229	0
10	411	78.400411475229	0
10	412	78.600411475229	0
10	413	78.800411475229	0
10	414	79.000411475229	0
10	415	79.200411475229	0
10	416	79.400411475229	0
10	417	79.600411475229	0
10	418	79.800411475229	0
11	0	0	0
11	1	0.2	0
11	2	0.4	0
11	3	0.6	0
11	4	0.8	0
11	5	1	0
11	6	1.2	0
11	7	1.4	0
11	8	1.6	0
11	9	1.8	0
11	10	2	0
11	11	2.008874531288	0
11	12	2.208874531288	0
11	13	2.408874531288	0
11	14	2.608874531288	0
11	15	2.808874531288	0
11	16	3.008874531288	0
11	17	3.208874531288	0
11	18	3.408874531288	0
11	19	3.608874531288	0
11	20	3.808874531288	0
11	21	4.008874531288	0
11	22	4.208874531288	0
11	23	4.405668654228	0
11	24	4.605668654228	0
11	25	4.805668654228	0
11	26	5.005668654228	0
11	27	5.205668654228	0
11	28	5.405668654228	0
11	29	5.605668654228	0
11	30	5.805668654228	0
11	31	6.005668654228	0
11	32	6.099321834452	0
11	33	6.299321834452	0
11	34	6.499321834452	0
11	35	6.699321834452	0
11	36	6.899321834452	0
11	37	7.099321834452	0
11	38	7.299321834452	0
11	39	7.499321834452	0
11	40	7.699321834452	0
11	41	7.857721950554	0
11	42	8.057721950554	0
11	43	8.257721950554	0
11	44	8.457721950554	0
11	45	8.657721950554	0
11	46	8.857721950554	0
11	47	9.057721950554	0
11	48	9.257721950554	0
11	49	9.302907358191	0
11	50	9.502907358191	0
11	51	9.702907358191	0
11	52	9.902907358191	0
11	53	10.102907358191	0
11	54	10.302907358191	0
11	55	10.502907358191	0
11	56	10.702907358191	0
11	57	10.902907358191	0
11	58	11.102907358191	0
11	59	11.221838890822	0
11	60	11.421838890822	0
11	61	11.621838890822	0
11	62	11.821838890822	0
11	63	12.021838890822	0
11	64	12.221838890822	0
11	65	12.421838890822	0
11	66	12.621838890822	0
11	67	12.821838890822	0
11	68	13.021838890822	0
11	69	13.221838890822	0
11	70	13.421838890822	0
11	71	13.621838890822	0
11	72	13.735621410191	0
11	73	13.935621410191	0
11	74	14.135621410191	0
11	75	14.335621410191	0
11	76	14.535621410191	0
11	77	14.735621410191	0
11	78	14.935621410191	0
11	79	15.135621410191	0
11	80	15.335621410191	0
11	81	15.535621410191	0
11	82	15.735621410191	0
11	83	15.935621410191	0
11	84	16.135621410191	0
11	85	16.335621410191	0
11	86	16.488963017049	0
11	87	16.688963017049	0
11	88	16.888963017049	0
11	89	17.088963017049	0
11	90	17.288963017049	0
11	91	17.488963017049	0
11	92	17.688963017049	0
11	93	17.888963017049	0
11	94	18.088963017049	0
11	95	18.288963017049	0
11	96	18.488963017049	0
11	97	18.661003131245	0
11	98	18.861003131245	0
11	99	19.061003131245	0
11	100	19.261003131245	0
11	101	19.461003131245	0
11	102	19.661003131245	0
11	103	19.861003131245	0
11	104	20.061003131245	0
11	105	20.261003131245	0
11	106	20.461003131245	0
11	107	20.661003131245	0
11	108	20.71621214714	0
11	109	20.91621214714	0
11	110	21.11621214714	0
11	111	21.31621214714	0
11	112	21.51621214714	0
11	113	21.71621214714	0
11	114	21.91621214714	0
11	115	22.11621214714	0
11	116	22.31621214714	0
11	117	22.51621214714	0
11	118	22.71621214714	0
11	119	22.91621214714	0
11	120	23.11621214714	0
11	121	23.31621214714	0
11	122	23.51621214714	0
11	123	23.71621214714	0
11	124	23.797996152218	0
11	125	23.997996152218	0
11	126	24.197996152218	0
11	127	24.397996152218	0
11	128	24.597996152218	0
11	129	24.797996152218	0
11	130	24.997996152218	0
11	131	25.197996152218	0
11	132	25.397996152218	0
11	133	25.597996152218	0
11	134	25.797996152218	0
11	135	25.997996152218	0
11	136	26.07368352484	0
11	137	26.27368352484	0
11	138	26.47368352484	0
11	139	26.67368352484	0
11	140	26.87368352484	0
11	141	27.07368352484	0
11	142	27.27368352484	0
11	143	27.47368352484	0
11	144	27.67368352484	0
11	145	27.87368352484	0
11	146	27.975288420957	0
11	147	28.175288420957	0
11	148	28.375288420957	0
11	149	28.575288420957	0
11	150	28.775288420957	0
11	151	28.836063354994	0
11	152	29.036063354994	0
11	153	29.236063354994	0
11	154	29.436063354994	0
11	155	29.636063354994	0
11	156	29.836063354994	0
11	157	30.036063354994	0
11	158	30.236063354994	0
11	159	30.436063354994	0
11	160	30.636063354994	0
11	161	30.836063354994	0
11	162	31.036063354994	0
11	163	31.156723110088	0
11	164	31.356723110088	0
11	165	31.556723110088	0
11	166	31.756723110088	0
11	167	31.956723110088	0
11	168	32.156723110088	0
11	169	32.356723110088	0
11	170	32.556723110088	0
11	171	32.756723110088	0
11	172	32.956723110088	0
11	173	33.156723110088	0
11	174	33.356723110088	0
11	175	33.556723110088	0
11	176	33.756723110088	0
11	177	33.956723110088	0
11	178	34.156723110088	0
11	179	34.356723110088	0
11	180	34.556723110088	0
11	181	34.634216533546	0
11	182	34.834216533546	0
11	183	35.034216533546	0
11	184	35.234216533546	0
11	185	35.434216533546	0
11	186	35.634216533546	0
11	187	35.834216533546	0
11	188	36.034216533546	0
11	189	36.173265565715	0
11	190	36.373265565715	0
11	191	36.573265565715	0
11	192	36.773265565715	0
11	193	36.973265565715	0
11	194	37.173265565715	0
11	195	37.373265565715	0
11	196	37.573265565715	0
11	197	37.773265565715	0
11	198	37.973265565715	0
11	199	38.09406354607	0
11	200	38.29406354607	0
11	201	38.49406354607	0
11	202	38.69406354607	0
11	203	38.89406354607	0
11	204	39.09406354607	0
11	205	39.29406354607	0
11	206	39.49406354607	0
11	207	39.69406354607	0
11	208	39.819338737458	0
11	209	40.019338737458	0
11	210	40.219338737458	0
11	211	40.419338737458	0
11	212	40.619338737458	0
11	213	40.819338737458	0
11	214	41.019338737458	0
11	215	41.219338737458	0
11	216	41.419338737458	0
11	217	41.619338737458	0
11	218	41.819338737458	0
11	219	42.019338737458	0
11	220	42.173152870002	0
11	221	42.373152870002	0
11	222	42.573152870002	0
11	223	42.773152870002	0
11	224	42.973152870002	0
11	225	43.173152870002	0
11	226	43.373152870002	0
11	227	43.573152870002	0
11	228	43.773152870002	0
11	229	43.973152870002	0
11	230	44.173152870002	0
11	231	44.21723347076	0
11	232	44.41723347076	0
11	233	44.61723347076	0
11	234	44.81723347076	0
11	235	45.01723347076	0
11	236	45.21723347076	0
11	237	45.41723347076	0
11	238	45.61723347076	0
11	239	45.81723347076	0
11	240	46.01723347076	0
11	241	46.11506739887	0
11	242	46.31506739887	0
11	243	46.51506739887	0
11	244	46.71506739887	0
11	245	46.91506739887	0
11	246	47.11506739887	0
11	247	47.31506739887	0
11	248	47.51506739887	0
11	249	47.70835006517	0
11	250	47.90835006517	0
11	251	48.10835006517	0
11	252	48.30835006517	0
11	253	48.50835006517	0
11	254	48.70835006517	0
11	255	48.90835006517	0
11	256	49.10835006517	0
11	257	49.30835006517	0
11	258	49.50835006517	0
11	259	49.70835006517	0
11	260	49.715358651639	0
11	261	49.915358651639	0
11	262	50.115358651639	0
11	263	50.315358651639	0
11	264	50.515358651639	0
11	265	50.715358651639	0
11	266	50.915358651639	0
11	267	51.115358651639	0
11	268	51.315358651639	0
11	269	51.515358651639	0
11	270	51.525605808973	0
11	271	51.725605808973	0
11	272	51.925605808973	0
11	273	52.125605808973	0
11	274	52.325605808973	0
11	275	52.525605808973	0
11	276	52.725605808973	0
11	277	52.925605808973	0
11	278	53.125605808973	0
11	279	53.325605808973	0
11	280	53.525605808973	0
11	281	53.725605808973	0
11	282	53.925605808973	0
11	283	54.125605808973	0
11	284	54.325605808973	0
11	285	54.525605808973	0
11	286	54.537585018431	0
11	287	54.737585018431	0
11	288	54.937585018431	0
11	289	55.137585018431	0
11	290	55.337585018431	0
11	291	55.537585018431	0
11	292	55.737585018431	0
11	293	55.937585018431	0
11	294	56.03765297055	0
11	295	56.23765297055	0
11	296	56.43765297055	0
11	297	56.63765297055	0
11	298	56.83765297055	0
11	299	57.03765297055	0
11	300	57.23765297055	0
11	301	57.43765297055	0
11	302	57.63765297055	0
11	303	57.835653366298	0
11	304	58.035653366298	0
11	305	58.235653366298	0
11	306	58.435653366298	0
11	307	58.635653366298	0
11	308	58.835653366298	0
11	309	59.035653366298	0
11	310	59.235653366298	0
11	311	59.435653366298	0
11	312	59.635653366298	0
11	313	59.835653366298	0
11	314	60.035653366298	0
11	315	60.070620107081	0
11	316	60.270620107081	0
11	317	60.470620107081	0
11	318	60.670620107081	0
11	319	60.870620107081	0
11	320	61.070620107081	0
11	321	61.270620107081	0
11	322	61.470620107081	0
11	323	61.562094842018	0
11	324	61.762094842018	0
11	325	61.962094842018	0
11	326	62.162094842018	0
11	327	62.362094842018	0
11	328	62.562094842018	0
11	329	62.762094842018	0
11	330	62.962094842018	0
11	331	63.162094842018	0
11	332	63.362094842018	0
11	333	63.562094842018	0
11	334	63.762094842018	0
11	335	63.962094842018	0
11	336	64.162094842018	0
11	337	64.362094842018	0
11	338	64.512245352061	0
11	339	64.712245352061	0
11	340	64.912245352061	0
11	341	65.112245352061	0
11	342	65.312245352061	0
11	343	65.512245352061	0
11	344	65.712245352061	0
11	345	65.912245352061	0
11	346	66.112245352061	0
11	347	66.312245352061	0
11	348	66.512245352061	0
11	349	66.712245352061	0
11	350	66.77779334782	0
11	351	66.97779334782	0
11	352	67.17779334782	0
11	353	67.37779334782	0
11	354	67.57779334782	0
11	355	67.77779334782	0
11	356	67.97779334782	0
11	357	68.17779334782	0
11	358	68.37779334782	0
11	359	68.57779334782	0
11	360	68.77779334782	0
11	361	68.97779334782	0
11	362	69.17779334782	0
11	363	69.283340872417	0
11	364	69.483340872417	0
11	365	69.683340872417	0
11	366	69.883340872417	0
11	367	70.083340872417	0
11	368	70.283340872417	0
11	369	70.483340872417	0
11	370	70.683340872417	0
11	371	70.883340872417	0
11	372	71.083340872417	0
11	373	71.283340872417	0
11	374	71.483340872417	0
11	375	71.683340872417	0
11	376	71.810471486877	0
11	377	72.010471486877	0
11	378	72.210471486877	0
11	379	72.410471486877	0
11	380	72.521560910053	0
11	381	72.721560910053	0
11	382	72.921560910053	0
11	383	73.121560910053	0
11	384	73.321560910053	0
11	385	73.521560910053	0
11	386	73.721560910053	0
11	387	73.921560910053	0
11	388	74.121560910053	0
11	389	74.321560910053	0
11	390	74.521560910053	0
11	391	74.721560910053	0
11	392	74.921560910053	0
11	393	75.121560910053	0
11	394	75.190601655136	0
11	395	75.390601655136	0
11	396	75.590601655136	0
11	397	75.790601655136	0
11	398	75.990601655136	0
11	399	76.190601655136	0
11	400	76.390601655136	0
11	401	76.590601655136	0
11	402	76.790601655136	0
11	403	76.990601655136	0
11	404	77.190601655136	0
11	405	77.390601655136	0
11	406	77.590601655136	0
11	407	77.790601655136	0
11	408	77.990601655136	0
11	409	78.000411475229	0
11	410	78.200411475229	0
11	411	78.400411475229	0
11	412	78.600411475229	0
11	413	78.800411475229	0
11	414	79.000411475229	0
11	415	79.200411475229	0
11	416	79.400411475229	0
11	417	79.600411475229	0
11	418	79.800411475229	0
12	0	0	0
12	1	0.2	0
12	2	0.4	0
12	3	0.6	0
12	4	0.8	0
12	5	1	0
12	6	1.2	0
12	7	1.4	0
12	8	1.6	0
12	9	1.8	0
12	10	2	0
12	11	2.008874531288	0
12	12	2.208874531288	0
12	13	2.408874531288	0
12	14	2.608874531288	0
12	15	2.808874531288	0
12	16	3.008874531288	0
12	17	3.208874531288	0
12	18	3.408874531288	0
12	19	3.608874531288	0
12	20	3.808874531288	0
12	21	4.008874531288	0
12	22	4.208874531288	0
12	23	4.405668654228	0
12	24	4.605668654228	0
12	25	4.805668654228	0
12	26	5.005668654228	0
12	27	5.205668654228	0
12	28	5.405668654228	0
12	29	5.605668654228	0
12	30	5.805668654228	0
12	31	6.005668654228	0
12	32	6.099321834452	0
12	33	6.299321834452	0
12	34	6.499321834452	0
12	35	6.699321834452	0
12	36	6.899321834452	0
12	37	7.099321834452	0
12	38	7.299321834452	0
12	39	7.499321834452	0
12	40	7.699321834452	0
12	41	7.857721950554	0
12	42	8.057721950554	0
12	43	8.257721950554	0
12	44	8.457721950554	0
12	45	8.657721950554	0
12	46	8.857721950554	0
12	47	9.057721950554	0
12	48	9.257721950554	0
12	49	9.302907358191	0
12	50	9.502907358191	0
12	51	9.702907358191	0
12	52	9.902907358191	0
12	53	10.102907358191	0
12	54	10.302907358191	0
12	55	10.502907358191	0
12	56	10.702907358191	0
12	57	10.902907358191	0
12	58	11.102907358191	0
12	59	11.221838890822	0
12	60	11.421838890822	0
12	61	11.621838890822	0
12	62	11.821838890822	0
12	63	12.021838890822	0
12	64	12.221838890822	0
12	65	12.421838890822	0
12	66	12.621838890822	0
12	67	12.821838890822	0
12	68	13.021838890822	0
12	69	13.221838890822	0
12	70	13.421838890822	0
12	71	13.621838890822	0
12	72	13.735621410191	0
12	73	13.935621410191	0
12	74	14.135621410191	0
12	75	14.335621410191	0
12	76	14.535621410191	0
12	77	14.735621410191	0
12	78	14.935621410191	0
12	79	15.135621410191	0
12	80	15.335621410191	0
12	81	15.535621410191	0
12	82	15.735621410191	0
12	83	15.935621410191	0
12	84	16.135621410191	0
12	85	16.335621410191	0
12	86	16.488963017049	0
12	87	16.688963017049	0
12	88	16.888963017049	0
12	89	17.088963017049	0
12	90	17.288963017049	0
12	91	17.488963017049	0
12	92	17.688963017049	0
12	93	17.888963017049	0
12	94	18.088963017049	0
12	95	18.288963017049	0
12	96	18.488963017049	0
12	97	18.661003131245	0
12	98	18.861003131245	0
12	99	19.061003131245	0
12	100	19.261003131245	0
12	101	19.461003131245	0
12	102	19.661003131245	0
12	103	19.861003131245	0
12	104	20.061003131245	0
12	105	20.261003131245	0
12	106	20.461003131245	0
12	107	20.661003131245	0
12	108	20.71621214714	0
12	109	20.91621214714	0
12	110	21.11621214714	0
12	111	21.31621214714	0
12	112	21.51621214714	0
12	113	21.71621214714	0
12	114	21.91621214714	0
12	115	22.11621214714	0
12	116	22.31621214714	0
12	117	22.51621214714	0
12	118	22.71621214714	0
12	119	22.91621214714	0
12	120	23.11621214714	0
12	121	23.31621214714	0
12	122	23.51621214714	0
12	123	23.71621214714	0
12	124	23.797996152218	0
12	125	23.997996152218	0
12	126	24.197996152218	0
12	127	24.397996152218	0
12	128	24.597996152218	0
12	129	24.797996152218	0
12	130	24.997996152218	0
12	131	25.197996152218	0
12	132	25.397996152218	0
12	133	25.597996152218	0
12	134	25.797996152218	0
12	135	25.997996152218	0
12	136	26.07368352484	0
12	137	26.27368352484	0
12	138	26.47368352484	0
12	139	26.67368352484	0
12	140	26.87368352484	0
12	141	27.07368352484	0
12	142	27.27368352484	0
12	143	27.47368352484	0
12	144	27.67368352484	0
12	145	27.87368352484	0
12	146	27.975288420957	0
12	147	28.175288420957	0
12	148	28.375288420957	0
12	149	28.575288420957	0
12	150	28.775288420957	0
12	151	28.836063354994	0
12	152	29.036063354994	0
12	153	29.236063354994	0
12	154	29.436063354994	0
12	155	29.636063354994	0
12	156	29.836063354994	0
12	157	30.036063354994	0
12	158	30.236063354994	0
12	159	30.436063354994	0
12	160	30.636063354994	0
12	161	30.836063354994	0
12	162	31.036063354994	0
12	163	31.156723110088	0
12	164	31.356723110088	0
12	165	31.556723110088	0
12	166	31.756723110088	0
12	167	31.956723110088	0
12	168	32.156723110088	0
12	169	32.356723110088	0
12	170	32.556723110088	0
12	171	32.756723110088	0
12	172	32.956723110088	0
12	173	33.156723110088	0
12	174	33.356723110088	0
12	175	33.556723110088	0
12	176	33.756723110088	0
12	177	33.956723110088	0
12	178	34.156723110088	0