version 3
run CNPF-16-20240912-08:19:27-54225
attr configname CNPF
attr datetime 20240912-08:19:27
attr datetimef 20240912-081927
attr experiment CNPF
attr inifile omnetpp.ini
attr iterationvars $0=20
attr iterationvarsd 20
attr iterationvarsf 20-
attr measurement $0=20
attr network ParcelDeliveryNetwork
attr processid 54225
attr repetition 6
attr replication #6
attr resultdir results
attr runnumber 16
attr seedset 16
config image-path ../inet/images
config network ParcelDeliveryNetwork
config description "1 drones, 30 destinations, 30 parcels, "
config *.numdrones 1
config **.drone*.mobility.typename DroneNetMob
config **.drone[*].mobility.ndst 20
config **.drone[*].mobility.nd 8
config **.drone[*].mobility.npar 30
config **.drone[*].mobility.initFromDisplayString false
config **.drone[*].mobility.changeInterval "truncnormal(2s, 0.5s)"
config **.drone[*].mobility.angleDelta "normal(0deg, 30deg)"
config **.drone[*].mobility.speed 10mps
config **.drone[*].mobility.remainingBattery 480
config **.drone[*].mobility.weightCapacity 100
config **.drone[*].mobility.parcelSelectionMethod 0
config **.drone[*].mobility.initialX 0m
config **.drone[*].mobility.initialY 0m
config **.drone[*].mobility.initialZ 0m
config repeat 10
config sim-time-limit 80second
config **.constraintAreaMinX 0m
config **.constraintAreaMinY 0m
config **.constraintAreaMinZ 0m
config **.constraintAreaMaxX 600m
config **.constraintAreaMaxY 400m
config **.constraintAreaMaxZ 0m
config **.updateInterval 0.2s

vector 0 ParcelDeliveryNetwork.gcs.wlan[0].mac.dcf frameSequenceActive:vector ETV
attr autoWarmupFilter false
attr interpolationmode sample-hold
attr recordingmode vector
attr source warmup(count(frameSequenceStarted)-count(frameSequenceFinished))
attr title "frame sequence active"
vector 1 ParcelDeliveryNetwork.gcs.wlan[0].mac.dcf.channelAccess.pendingQueue queueLength:vector ETV
attr autoWarmupFilter false
attr interpolationmode sample-hold
attr recordingmode vector
attr source "warmup(atomic(constant0(packetPushEnded) + count(packetPushStarted) - count(packetPulled) - count(packetRemoved) - count(packetDropped)))"
attr title "queue length"
attr unit pk
vector 2 ParcelDeliveryNetwork.gcs.wlan[0].mac.dcf.channelAccess.pendingQueue queueBitLength:vector ETV
attr autoWarmupFilter false
attr interpolationmode sample-hold
attr recordingmode vector
attr source "warmup(atomic(constant0(packetPushEnded) + sum(packetLength(packetPushStarted)) - sum(packetLength(packetPulled)) - sum(packetLength(packetRemoved)) - sum(packetLength(packetDropped))))"
attr title "queue bit length"
attr unit b
vector 3 ParcelDeliveryNetwork.gcs.wlan[0].mac.dcf.channelAccess.inProgressFrames queueLength:vector ETV
attr autoWarmupFilter false
attr interpolationmode sample-hold
attr recordingmode vector
attr source "warmup(count(packetEnqueued) - count(packetDequeued))"
attr title "queue length"
vector 4 ParcelDeliveryNetwork.gcs.wlan[0].mac.dcf.channelAccess.contention backoffActive:vector ETV
attr autoWarmupFilter false
attr interpolationmode sample-hold
attr recordingmode vector
attr source warmup(count(backoffStarted)-count(backoffStopped))
attr title "backoff active"
vector 5 ParcelDeliveryNetwork.gcs.udp passedUpPk:vector(count) ETV
attr interpolationmode none
attr recordingmode vector(count)
attr source packetSentToUpper
attr title "packets passed up, count"
vector 6 ParcelDeliveryNetwork.gcs.udp droppedPkWrongPort:vector(count) ETV
attr interpolationmode none
attr recordingmode vector(count)
attr source packetDropReasonIsNoPortFound(packetDropped)
attr title "packets dropped (wrong port), count"
vector 7 ParcelDeliveryNetwork.gcs.udp droppedPkBadChecksum:vector(count) ETV
attr interpolationmode none
attr recordingmode vector(count)
attr source packetDropReasonIsIncorrectlyReceived(packetDropped)
attr title "packets dropped (checksum error), count"
vector 8 ParcelDeliveryNetwork.gcs.wlan[0].radio radioMode:vector ETV
attr interpolationmode sample-hold
attr recordingmode vector
attr source radioModeChanged
attr title "Radio mode"
vector 9 ParcelDeliveryNetwork.gcs.wlan[0].radio radioChannel:vector ETV
attr interpolationmode sample-hold
attr recordingmode vector
attr source radioChannelChanged
attr title "Radio channel"
vector 10 ParcelDeliveryNetwork.drone[0] coordX:vector ETV
attr interpolationmode linear
attr recordingmode vector
attr source xCoord(mobilityPos(mobilityStateChanged))
attr title "coord X"
vector 11 ParcelDeliveryNetwork.drone[0] coordY:vector ETV
attr interpolationmode linear
attr recordingmode vector
attr source yCoord(mobilityPos(mobilityStateChanged))
attr title "coord Y"
vector 12 ParcelDeliveryNetwork.drone[0] coordZ:vector ETV
attr interpolationmode linear
attr recordingmode vector
attr source zCoord(mobilityPos(mobilityStateChanged))
attr title "coord Z"
vector 13 ParcelDeliveryNetwork.gcs.wlan[0].radio receptionState:vector ETV
attr interpolationmode sample-hold
attr recordingmode vector
attr source receptionStateChanged
attr title "Radio reception state"
vector 14 ParcelDeliveryNetwork.gcs.wlan[0].mac.dcf.channelAccess.contention stateChanged:vector ETV
attr enum IDLE,DEFER,IFS_AND_BACKOFF
attr interpolationmode none
attr recordingmode vector
attr title "contention state changed"
attr type enum
vector 15 ParcelDeliveryNetwork.gcs.wlan[0].mac.dcf.recoveryProcedure contentionWindowChanged:vector ETV
attr interpolationmode sample-hold
attr recordingmode vector
attr title "contention window"
0	0	0	0
0	0	0	0
1	0	0	0
1	0	0	0
1	0	0	0
1	0	0	0
1	0	0	0
2	0	0	0
2	0	0	0
2	0	0	0
2	0	0	0
2	0	0	0
3	0	0	0
3	0	0	0
4	0	0	0
4	0	0	0
5	0	0	0
6	0	0	0
7	0	0	0
8	0	0	0
8	0	0	0
8	0	0	2
9	0	0	0
10	0	0	0
10	1	0.2	0
10	2	0.4	0
10	3	0.6	0
10	4	0.8	0
10	5	1	0
10	6	1.2	0
10	7	1.4	0
10	8	1.6	0
10	9	1.772287353607	0
10	10	1.972287353607	0
10	11	2.172287353607	0
10	12	2.372287353607	0
10	13	2.572287353607	0
10	14	2.772287353607	0
10	15	2.972287353607	0
10	16	3.172287353607	0
10	17	3.372287353607	0
10	18	3.572287353607	0
10	19	3.772287353607	0
10	20	3.870258021644	0
10	21	4.070258021644	0
10	22	4.270258021644	0
10	23	4.470258021644	0
10	24	4.670258021644	0
10	25	4.870258021644	0
10	26	5.070258021644	0
10	27	5.270258021644	0
10	28	5.470258021644	0
10	29	5.670258021644	0
10	30	5.736771351772	0
10	31	5.936771351772	0
10	32	6.136771351772	0
10	33	6.336771351772	0
10	34	6.536771351772	0
10	35	6.736771351772	0
10	36	6.936771351772	0
10	37	7.136771351772	0
10	38	7.336771351772	0
10	39	7.536771351772	0
10	40	7.736771351772	0
10	41	7.936771351772	0
10	42	7.938473339396	0
10	43	8.138473339396	0
10	44	8.338473339396	0
10	45	8.538473339396	0
10	46	8.738473339396	0
10	47	8.938473339396	0
10	48	9.138473339396	0
10	49	9.338473339396	0
10	50	9.504437275948	0
10	51	9.704437275948	0
10	52	9.904437275948	0
10	53	10.104437275948	0
10	54	10.304437275948	0
10	55	10.504437275948	0
10	56	10.704437275948	0
10	57	10.904437275948	0
10	58	11.104437275948	0
10	59	11.304437275948	0
10	60	11.504437275948	0
10	61	11.70332872371	0
10	62	11.90332872371	0
10	63	12.10332872371	0
10	64	12.30332872371	0
10	65	12.50332872371	0
10	66	12.70332872371	0
10	67	12.90332872371	0
10	68	13.10332872371	0
10	69	13.30332872371	0
10	70	13.50332872371	0
10	71	13.70332872371	0
10	72	13.810195790266	0
10	73	14.010195790266	0
10	74	14.210195790266	0
10	75	14.410195790266	0
10	76	14.610195790266	0
10	77	14.810195790266	0
10	78	15.010195790266	0
10	79	15.210195790266	0
10	80	15.341320756235	0
10	81	15.541320756235	0
10	82	15.741320756235	0
10	83	15.941320756235	0
10	84	16.141320756235	0
10	85	16.341320756235	0
10	86	16.541320756235	0
10	87	16.741320756235	0
10	88	16.941320756235	0
10	89	17.141320756235	0
10	90	17.341320756235	0
10	91	17.541320756235	0
10	92	17.6479220501	0
10	93	17.8479220501	0
10	94	18.0479220501	0
10	95	18.2479220501	0
10	96	18.4479220501	0
10	97	18.6479220501	0
10	98	18.8479220501	0
10	99	19.0479220501	0
10	100	19.2479220501	0
10	101	19.4479220501	0
10	102	19.480792111515	0
10	103	19.680792111515	0
10	104	19.880792111515	0
10	105	20.080792111515	0
10	106	20.280792111515	0
10	107	20.480792111515	0
10	108	20.680792111515	0
10	109	20.743776594835	0
10	110	20.943776594835	0
10	111	21.143776594835	0
10	112	21.343776594835	0
10	113	21.543776594835	0
10	114	21.743776594835	0
10	115	21.943776594835	0
10	116	22.143776594835	0
10	117	22.343776594835	0
10	118	22.543776594835	0
10	119	22.701374028226	0
10	120	22.901374028226	0
10	121	23.101374028226	0
10	122	23.301374028226	0
10	123	23.501374028226	0
10	124	23.701374028226	0
10	125	23.901374028226	0
10	126	24.101374028226	0
10	127	24.301374028226	0
10	128	24.474359485909	0
10	129	24.674359485909	0
10	130	24.874359485909	0
10	131	25.074359485909	0
10	132	25.274359485909	0
10	133	25.474359485909	0
10	134	25.674359485909	0
10	135	25.874359485909	0
10	136	26.074359485909	0
10	137	26.274359485909	0
10	138	26.373225923128	0
10	139	26.573225923128	0
10	140	26.773225923128	0
10	141	26.973225923128	0
10	142	27.173225923128	0
10	143	27.373225923128	0
10	144	27.573225923128	0
10	145	27.773225923128	0
10	146	27.875259928048	0
10	147	28.075259928048	0
10	148	28.275259928048	0
10	149	28.475259928048	0
10	150	28.675259928048	0
10	151	28.875259928048	0
10	152	29.075259928048	0
10	153	29.275259928048	0
10	154	29.475259928048	0
10	155	29.675259928048	0
10	156	29.875259928048	0
10	157	30.075259928048	0
10	158	30.275259928048	0
10	159	30.349271647886	0
10	160	30.549271647886	0
10	161	30.749271647886	0
10	162	30.949271647886	0
10	163	31.149271647886	0
10	164	31.349271647886	0
10	165	31.549271647886	0
10	166	31.749271647886	0
10	167	31.949271647886	0
10	168	32.149271647886	0
10	169	32.224952427911	0
10	170	32.424952427911	0
10	171	32.624952427911	0
10	172	32.824952427911	0
10	173	33.024952427911	0
10	174	33.224952427911	0
10	175	33.424952427911	0
10	176	33.624952427911	0
10	177	33.824952427911	0
10	178	34.024952427911	0
10	179	34.079943397362	0
10	180	34.279943397362	0
10	181	34.479943397362	0
10	182	34.679943397362	0
10	183	34.879943397362	0
10	184	35.079943397362	0
10	185	35.279943397362	0
10	186	35.479943397362	0
10	187	35.679943397362	0
10	188	35.879364779173	0
10	189	36.079364779173	0
10	190	36.279364779173	0
10	191	36.479364779173	0
10	192	36.679364779173	0
10	193	36.879364779173	0
10	194	37.079364779173	0
10	195	37.279364779173	0
10	196	37.479364779173	0
10	197	37.679364779173	0
10	198	37.879364779173	0
10	199	38.079364779173	0
10	200	38.260414600462	0
10	201	38.460414600462	0
10	202	38.660414600462	0
10	203	38.860414600462	0
10	204	39.060414600462	0
10	205	39.260414600462	0
10	206	39.460414600462	0
10	207	39.660414600462	0
10	208	39.860414600462	0
10	209	40.060414600462	0
10	210	40.160769111319	0
10	211	40.360769111319	0
10	212	40.560769111319	0
10	213	40.760769111319	0
10	214	40.960769111319	0
10	215	41.160769111319	0
10	216	41.360769111319	0
10	217	41.560769111319	0
10	218	41.760769111319	0
10	219	41.960769111319	0
10	220	42.160769111319	0
10	221	42.360769111319	0
10	222	42.545026760748	0
10	223	42.745026760748	0
10	224	42.945026760748	0
10	225	43.145026760748	0
10	226	43.345026760748	0
10	227	43.545026760748	0
10	228	43.745026760748	0
10	229	43.945026760748	0
10	230	44.145026760748	0
10	231	44.345026760748	0
10	232	44.545026760748	0
10	233	44.733096131585	0
10	234	44.933096131585	0
10	235	45.133096131585	0
10	236	45.333096131585	0
10	237	45.533096131585	0
10	238	45.733096131585	0
10	239	45.933096131585	0
10	240	46.133096131585	0
10	241	46.333096131585	0
10	242	46.533096131585	0
10	243	46.733096131585	0
10	244	46.871585017242	0
10	245	47.071585017242	0
10	246	47.271585017242	0
10	247	47.471585017242	0
10	248	47.671585017242	0
10	249	47.871585017242	0
10	250	48.071585017242	0
10	251	48.271585017242	0
10	252	48.471585017242	0
10	253	48.671585017242	0
10	254	48.871585017242	0
10	255	49.071585017242	0
10	256	49.132182845206	0
10	257	49.332182845206	0
10	258	49.532182845206	0
10	259	49.732182845206	0
10	260	49.932182845206	0
10	261	50.132182845206	0
10	262	50.332182845206	0
10	263	50.532182845206	0
10	264	50.732182845206	0
10	265	50.932182845206	0
10	266	51.132182845206	0
10	267	51.175963712526	0
10	268	51.375963712526	0
10	269	51.575963712526	0
10	270	51.775963712526	0
10	271	51.975963712526	0
10	272	52.175963712526	0
10	273	52.375963712526	0
10	274	52.575963712526	0
10	275	52.775963712526	0
10	276	52.975963712526	0
10	277	53.175963712526	0
10	278	53.375963712526	0
10	279	53.575963712526	0
10	280	53.775963712526	0
10	281	53.80838043531	0
10	282	54.00838043531	0
10	283	54.20838043531	0
10	284	54.40838043531	0
10	285	54.60838043531	0
10	286	54.80838043531	0
10	287	54.924477852497	0
10	288	55.124477852497	0
10	289	55.324477852497	0
10	290	55.524477852497	0
10	291	55.724477852497	0
10	292	55.924477852497	0
10	293	56.124477852497	0
10	294	56.324477852497	0
10	295	56.524477852497	0
10	296	56.724477852497	0
10	297	56.73936862129	0
10	298	56.93936862129	0
10	299	57.13936862129	0
10	300	57.33936862129	0
10	301	57.53936862129	0
10	302	57.73936862129	0
10	303	57.93936862129	0
10	304	58.096365154561	0
10	305	58.296365154561	0
10	306	58.496365154561	0
10	307	58.696365154561	0
10	308	58.896365154561	0
10	309	59.096365154561	0
10	310	59.296365154561	0
10	311	59.496365154561	0
10	312	59.696365154561	0
10	313	59.896365154561	0
10	314	60.096365154561	0
10	315	60.232372923392	0
10	316	60.432372923392	0
10	317	60.632372923392	0
10	318	60.832372923392	0
10	319	61.032372923392	0
10	320	61.232372923392	0
10	321	61.432372923392	0
10	322	61.632372923392	0
10	323	61.832372923392	0
10	324	61.86157083002	0
10	325	62.06157083002	0
10	326	62.26157083002	0
10	327	62.46157083002	0
10	328	62.66157083002	0
10	329	62.86157083002	0
10	330	63.06157083002	0
10	331	63.26157083002	0
10	332	63.46157083002	0
10	333	63.66157083002	0
10	334	63.86157083002	0
10	335	64.06157083002	0
10	336	64.116425491039	0
10	337	64.316425491039	0
10	338	64.516425491039	0
10	339	64.716425491039	0
10	340	64.916425491039	0
10	341	65.116425491039	0
10	342	65.316425491039	0
10	343	65.516425491039	0
10	344	65.692944237355	0
10	345	65.892944237355	0
10	346	66.092944237355	0
10	347	66.292944237355	0
10	348	66.492944237355	0
10	349	66.692944237355	0
10	350	66.892944237355	0
10	351	67.092944237355	0
10	352	67.292944237355	0
10	353	67.492944237355	0
10	354	67.692944237355	0
10	355	67.892944237355	0
10	356	68.092944237355	0
10	357	68.292944237355	0
10	358	68.425331358292	0
10	359	68.625331358292	0
10	360	68.825331358292	0
10	361	69.025331358292	0
10	362	69.225331358292	0
10	363	69.425331358292	0
10	364	69.625331358292	0
10	365	69.825331358292	0
10	366	70.025331358292	0
10	367	70.225331358292	0
10	368	70.3437622	0
10	369	70.5437622	0
10	370	70.7437622	0
10	371	70.9437622	0
10	372	71.1437622	0
10	373	71.3437622	0
10	374	71.5437622	0
10	375	71.7437622	0
10	376	71.9437622	0
10	377	72.1437622	0
10	378	72.3437622	0
10	379	72.5437622	0
10	380	72.632565805425	0
10	381	72.832565805425	0
10	382	73.032565805425	0
10	383	73.232565805425	0
10	384	73.432565805425	0
10	385	73.632565805425	0
10	386	73.832565805425	0
10	387	74.032565805425	0
10	388	74.232565805425	0
10	389	74.432565805425	0
10	390	74.568632944622	0
10	391	74.768632944622	0
10	392	74.968632944622	0
10	393	75.168632944622	0
10	394	75.368632944622	0
10	395	75.568632944622	0
10	396	75.768632944622	0
10	397	75.968632944622	0
10	398	76.168632944622	0
10	399	76.368632944622	0
10	400	76.568632944622	0
10	401	76.595647124492	0
10	402	76.795647124492	0
10	403	76.995647124492	0
10	404	77.195647124492	0
10	405	77.395647124492	0
10	406	77.595647124492	0
10	407	77.795647124492	0
10	408	77.995647124492	0
10	409	78.195647124492	0
10	410	78.395647124492	0
10	411	78.595647124492	0
10	412	78.648372468585	0
10	413	78.848372468585	0
10	414	79.048372468585	0
10	415	79.248372468585	0
10	416	79.448372468585	0
10	417	79.648372468585	0
10	418	79.848372468585	0
11	0	0	0
11	1	0.2	0
11	2	0.4	0
11	3	0.6	0
11	4	0.8	0
11	5	1	0
11	6	1.2	0
11	7	1.4	0
11	8	1.6	0
11	9	1.772287353607	0
11	10	1.972287353607	0
11	11	2.172287353607	0
11	12	2.372287353607	0
11	13	2.572287353607	0
11	14	2.772287353607	0
11	15	2.972287353607	0
11	16	3.172287353607	0
11	17	3.372287353607	0
11	18	3.572287353607	0
11	19	3.772287353607	0
11	20	3.870258021644	0
11	21	4.070258021644	0
11	22	4.270258021644	0
11	23	4.470258021644	0
11	24	4.670258021644	0
11	25	4.870258021644	0
11	26	5.070258021644	0
11	27	5.270258021644	0
11	28	5.470258021644	0
11	29	5.670258021644	0
11	30	5.736771351772	0
11	31	5.936771351772	0
11	32	6.136771351772	0
11	33	6.336771351772	0
11	34	6.536771351772	0
11	35	6.736771351772	0
11	36	6.936771351772	0
11	37	7.136771351772	0
11	38	7.336771351772	0
11	39	7.536771351772	0
11	40	7.736771351772	0
11	41	7.936771351772	0
11	42	7.938473339396	0
11	43	8.138473339396	0
11	44	8.338473339396	0
11	45	8.538473339396	0
11	46	8.738473339396	0
11	47	8.938473339396	0
11	48	9.138473339396	0
11	49	9.338473339396	0
11	50	9.504437275948	0
11	51	9.704437275948	0
11	52	9.904437275948	0
11	53	10.104437275948	0
11	54	10.304437275948	0
11	55	10.504437275948	0
11	56	10.704437275948	0
11	57	10.904437275948	0
11	58	11.104437275948	0
11	59	11.304437275948	0
11	60	11.504437275948	0
11	61	11.70332872371	0
11	62	11.90332872371	0
11	63	12.10332872371	0
11	64	12.30332872371	0
11	65	12.50332872371	0
11	66	12.70332872371	0
11	67	12.90332872371	0
11	68	13.10332872371	0
11	69	13.30332872371	0
11	70	13.50332872371	0
11	71	13.70332872371	0
11	72	13.810195790266	0
11	73	14.010195790266	0
11	74	14.210195790266	0
11	75	14.410195790266	0
11	76	14.610195790266	0
11	77	14.810195790266	0
11	78	15.010195790266	0
11	79	15.210195790266	0
11	80	15.341320756235	0
11	81	15.541320756235	0
11	82	15.741320756235	0
11	83	15.941320756235	0
11	84	16.141320756235	0
11	85	16.341320756235	0
11	86	16.541320756235	0
11	87	16.741320756235	0
11	88	16.941320756235	0
11	89	17.141320756235	0
11	90	17.341320756235	0
11	91	17.541320756235	0
11	92	17.6479220501	0
11	93	17.8479220501	0
11	94	18.0479220501	0
11	95	18.2479220501	0
11	96	18.4479220501	0
11	97	18.6479220501	0
11	98	18.8479220501	0
11	99	19.0479220501	0
11	100	19.2479220501	0
11	101	19.4479220501	0
11	102	19.480792111515	0
11	103	19.680792111515	0
11	104	19.880792111515	0
11	105	20.080792111515	0
11	106	20.280792111515	0
11	107	20.480792111515	0
11	108	20.680792111515	0
11	109	20.743776594835	0
11	110	20.943776594835	0
11	111	21.143776594835	0
11	112	21.343776594835	0
11	113	21.543776594835	0
11	114	21.743776594835	0
11	115	21.943776594835	0
11	116	22.143776594835	0
11	117	22.343776594835	0
11	118	22.543776594835	0
11	119	22.701374028226	0
11	120	22.901374028226	0
11	121	23.101374028226	0
11	122	23.301374028226	0
11	123	23.501374028226	0
11	124	23.701374028226	0
11	125	23.901374028226	0
11	126	24.101374028226	0
11	127	24.301374028226	0
11	128	24.474359485909	0
11	129	24.674359485909	0
11	130	24.874359485909	0
11	131	25.074359485909	0
11	132	25.274359485909	0
11	133	25.474359485909	0
11	134	25.674359485909	0
11	135	25.874359485909	0
11	136	26.074359485909	0
11	137	26.274359485909	0
11	138	26.373225923128	0
11	139	26.573225923128	0
11	140	26.773225923128	0
11	141	26.973225923128	0
11	142	27.173225923128	0
11	143	27.373225923128	0
11	144	27.573225923128	0
11	145	27.773225923128	0
11	146	27.875259928048	0
11	147	28.075259928048	0
11	148	28.275259928048	0
11	149	28.475259928048	0
11	150	28.675259928048	0
11	151	28.875259928048	0
11	152	29.075259928048	0
11	153	29.275259928048	0
11	154	29.475259928048	0
11	155	29.675259928048	0
11	156	29.875259928048	0
11	157	30.075259928048	0
11	158	30.275259928048	0
11	159	30.349271647886	0
11	160	30.549271647886	0
11	161	30.749271647886	0
11	162	30.949271647886	0
11	163	31.149271647886	0
11	164	31.349271647886	0
11	165	31.549271647886	0
11	166	31.749271647886	0
11	167	31.949271647886	0
11	168	32.149271647886	0
11	169	32.224952427911	0
11	170	32.424952427911	0
11	171	32.624952427911	0
11	172	32.824952427911	0
11	173	33.024952427911	0
11	174	33.224952427911	0
11	175	33.424952427911	0
11	176	33.624952427911	0
11	177	33.824952427911	0
11	178	34.024952427911	0
11	179	34.079943397362	0
11	180	34.279943397362	0
11	181	34.479943397362	0
11	182	34.679943397362	0
11	183	34.879943397362	0
11	184	35.079943397362	0
11	185	35.279943397362	0
11	186	35.479943397362	0
11	187	35.679943397362	0
11	188	35.879364779173	0
11	189	36.079364779173	0
11	190	36.279364779173	0
11	191	36.479364779173	0
11	192	36.679364779173	0
11	193	36.879364779173	0
11	194	37.079364779173	0
11	195	37.279364779173	0
11	196	37.479364779173	0
11	197	37.679364779173	0
11	198	37.879364779173	0
11	199	38.079364779173	0
11	200	38.260414600462	0
11	201	38.460414600462	0
11	202	38.660414600462	0
11	203	38.860414600462	0
11	204	39.060414600462	0
11	205	39.260414600462	0
11	206	39.460414600462	0
11	207	39.660414600462	0
11	208	39.860414600462	0
11	209	40.060414600462	0
11	210	40.160769111319	0
11	211	40.360769111319	0
11	212	40.560769111319	0
11	213	40.760769111319	0
11	214	40.960769111319	0
11	215	41.160769111319	0
11	216	41.360769111319	0
11	217	41.560769111319	0
11	218	41.760769111319	0
11	219	41.960769111319	0
11	220	42.160769111319	0
11	221	42.360769111319	0
11	222	42.545026760748	0
11	223	42.745026760748	0
11	224	42.945026760748	0
11	225	43.145026760748	0
11	226	43.345026760748	0
11	227	43.545026760748	0
11	228	43.745026760748	0
11	229	43.945026760748	0
11	230	44.145026760748	0
11	231	44.345026760748	0
11	232	44.545026760748	0
11	233	44.733096131585	0
11	234	44.933096131585	0
11	235	45.133096131585	0
11	236	45.333096131585	0
11	237	45.533096131585	0
11	238	45.733096131585	0
11	239	45.933096131585	0
11	240	46.133096131585	0
11	241	46.333096131585	0
11	242	46.533096131585	0
11	243	46.733096131585	0
11	244	46.871585017242	0
11	245	47.071585017242	0
11	246	47.271585017242	0
11	247	47.471585017242	0
11	248	47.671585017242	0
11	249	47.871585017242	0
11	250	48.071585017242	0
11	251	48.271585017242	0
11	252	48.471585017242	0
11	253	48.671585017242	0
11	254	48.871585017242	0
11	255	49.071585017242	0
11	256	49.132182845206	0
11	257	49.332182845206	0
11	258	49.532182845206	0
11	259	49.732182845206	0
11	260	49.932182845206	0
11	261	50.132182845206	0
11	262	50.332182845206	0
11	263	50.532182845206	0
11	264	50.732182845206	0
11	265	50.932182845206	0
11	266	51.132182845206	0
11	267	51.175963712526	0
11	268	51.375963712526	0
11	269	51.575963712526	0
11	270	51.775963712526	0
11	271	51.975963712526	0
11	272	52.175963712526	0
11	273	52.375963712526	0
11	274	52.575963712526	0
11	275	52.775963712526	0
11	276	52.975963712526	0
11	277	53.175963712526	0
11	278	53.375963712526	0
11	279	53.575963712526	0
11	280	53.775963712526	0
11	281	53.80838043531	0
11	282	54.00838043531	0
11	283	54.20838043531	0
11	284	54.40838043531	0
11	285	54.60838043531	0
11	286	54.80838043531	0
11	287	54.924477852497	0
11	288	55.124477852497	0
11	289	55.324477852497	0
11	290	55.524477852497	0
11	291	55.724477852497	0
11	292	55.924477852497	0
11	293	56.124477852497	0
11	294	56.324477852497	0
11	295	56.524477852497	0
11	296	56.724477852497	0
11	297	56.73936862129	0
11	298	56.93936862129	0
11	299	57.13936862129	0
11	300	57.33936862129	0
11	301	57.53936862129	0
11	302	57.73936862129	0
11	303	57.93936862129	0
11	304	58.096365154561	0
11	305	58.296365154561	0
11	306	58.496365154561	0
11	307	58.696365154561	0
11	308	58.896365154561	0
11	309	59.096365154561	0
11	310	59.296365154561	0
11	311	59.496365154561	0
11	312	59.696365154561	0
11	313	59.896365154561	0
11	314	60.096365154561	0
11	315	60.232372923392	0
11	316	60.432372923392	0
11	317	60.632372923392	0
11	318	60.832372923392	0
11	319	61.032372923392	0
11	320	61.232372923392	0
11	321	61.432372923392	0
11	322	61.632372923392	0
11	323	61.832372923392	0
11	324	61.86157083002	0
11	325	62.06157083002	0
11	326	62.26157083002	0
11	327	62.46157083002	0
11	328	62.66157083002	0
11	329	62.86157083002	0
11	330	63.06157083002	0
11	331	63.26157083002	0
11	332	63.46157083002	0
11	333	63.66157083002	0
11	334	63.86157083002	0
11	335	64.06157083002	0
11	336	64.116425491039	0
11	337	64.316425491039	0
11	338	64.516425491039	0
11	339	64.716425491039	0
11	340	64.916425491039	0
11	341	65.116425491039	0
11	342	65.316425491039	0
11	343	65.516425491039	0
11	344	65.692944237355	0
11	345	65.892944237355	0
11	346	66.092944237355	0
11	347	66.292944237355	0
11	348	66.492944237355	0
11	349	66.692944237355	0
11	350	66.892944237355	0
11	351	67.092944237355	0
11	352	67.292944237355	0
11	353	67.492944237355	0
11	354	67.692944237355	0
11	355	67.892944237355	0
11	356	68.092944237355	0
11	357	68.292944237355	0
11	358	68.425331358292	0
11	359	68.625331358292	0
11	360	68.825331358292	0
11	361	69.025331358292	0
11	362	69.225331358292	0
11	363	69.425331358292	0
11	364	69.625331358292	0
11	365	69.825331358292	0
11	366	70.025331358292	0
11	367	70.225331358292	0
11	368	70.3437622	0
11	369	70.5437622	0
11	370	70.7437622	0
11	371	70.9437622	0
11	372	71.1437622	0
11	373	71.3437622	0
11	374	71.5437622	0
11	375	71.7437622	0
11	376	71.9437622	0
11	377	72.1437622	0
11	378	72.3437622	0
11	379	72.5437622	0
11	380	72.632565805425	0
11	381	72.832565805425	0
11	382	73.032565805425	0
11	383	73.232565805425	0
11	384	73.432565805425	0
11	385	73.632565805425	0
11	386	73.832565805425	0
11	387	74.032565805425	0
11	388	74.232565805425	0
11	389	74.432565805425	0
11	390	74.568632944622	0
11	391	74.768632944622	0
11	392	74.968632944622	0
11	393	75.168632944622	0
11	394	75.368632944622	0
11	395	75.568632944622	0
11	396	75.768632944622	0
11	397	75.968632944622	0
11	398	76.168632944622	0
11	399	76.368632944622	0
11	400	76.568632944622	0
11	401	76.595647124492	0
11	402	76.795647124492	0
11	403	76.995647124492	0
11	404	77.195647124492	0
11	405	77.395647124492	0
11	406	77.595647124492	0
11	407	77.795647124492	0
11	408	77.995647124492	0
11	409	78.195647124492	0
11	410	78.395647124492	0
11	411	78.595647124492	0
11	412	78.648372468585	0
11	413	78.848372468585	0
11	414	79.048372468585	0
11	415	79.248372468585	0
11	416	79.448372468585	0
11	417	79.648372468585	0
11	418	79.848372468585	0
12	0	0	0
12	1	0.2	0
12	2	0.4	0
12	3	0.6	0
12	4	0.8	0
12	5	1	0
12	6	1.2	0
12	7	1.4	0
12	8	1.6	0
12	9	1.772287353607	0
12	10	1.972287353607	0
12	11	2.172287353607	0
12	12	2.372287353607	0
12	13	2.572287353607	0
12	14	2.772287353607	0
12	15	2.972287353607	0
12	16	3.172287353607	0
12	17	3.372287353607	0
12	18	3.572287353607	0
12	19	3.772287353607	0
12	20	3.870258021644	0
12	21	4.070258021644	0
12	22	4.270258021644	0
12	23	4.470258021644	0
12	24	4.670258021644	0
12	25	4.870258021644	0
12	26	5.070258021644	0
12	27	5.270258021644	0
12	28	5.470258021644	0
12	29	5.670258021644	0
12	30	5.736771351772	0
12	31	5.936771351772	0
12	32	6.136771351772	0
12	33	6.336771351772	0
12	34	6.536771351772	0
12	35	6.736771351772	0
12	36	6.936771351772	0
12	37	7.136771351772	0
12	38	7.336771351772	0
12	39	7.536771351772	0
12	40	7.736771351772	0
12	41	7.936771351772	0
12	42	7.938473339396	0
12	43	8.138473339396	0
12	44	8.338473339396	0
12	45	8.538473339396	0
12	46	8.738473339396	0
12	47	8.938473339396	0
12	48	9.138473339396	0
12	49	9.338473339396	0
12	50	9.504437275948	0
12	51	9.704437275948	0
12	52	9.904437275948	0
12	53	10.104437275948	0
12	54	10.304437275948	0
12	55	10.504437275948	0
12	56	10.704437275948	0
12	57	10.904437275948	0
12	58	11.104437275948	0
12	59	11.304437275948	0
12	60	11.504437275948	0
12	61	11.70332872371	0
12	62	11.90332872371	0
12	63	12.10332872371	0
12	64	12.30332872371	0
12	65	12.50332872371	0
12	66	12.70332872371	0
12	67	12.90332872371	0
12	68	13.10332872371	0
12	69	13.30332872371	0
12	70	13.50332872371	0
12	71	13.70332872371	0
12	72	13.810195790266	0
12	73	14.010195790266	0
12	74	14.210195790266	0
12	75	14.410195790266	0
12	76	14.610195790266	0
12	77	14.810195790266	0
12	78	15.010195790266	0
12	79	15.210195790266	0
12	80	15.341320756235	0
12	81	15.541320756235	0
12	82	15.741320756235	0
12	83	15.941320756235	0
12	84	16.141320756235	0
12	85	16.341320756235	0
12	86	16.541320756235	0
12	87	16.741320756235	0
12	88	16.941320756235	0
12	89	17.141320756235	0
12	90	17.341320756235	0
12	91	17.541320756235	0
12	92	17.6479220501	0
12	93	17.8479220501	0
12	94	18.0479220501	0
12	95	18.2479220501	0
12	96	18.4479220501	0
12	97	18.6479220501	0
12	98	18.8479220501	0
12	99	19.0479220501	0
12	100	19.2479220501	0
12	101	19.4479220501	0
12	102	19.480792111515	0
12	103	19.680792111515	0
12	104	19.880792111515	0
12	105	20.080792111515	0
12	106	20.280792111515	0
12	107	20.480792111515	0
12	108	20.680792111515	0
12	109	20.743776594835	0
12	110	20.943776594835	0
12	111	21.143776594835	0
12	112	21.343776594835	0
12	113	21.543776594835	0
12	114	21.743776594835	0
12	115	21.943776594835	0
12	116	22.143776594835	0
12	117	22.343776594835	0
12	118	22.543776594835	0
12	119	22.701374028226	0
12	120	22.901374028226	0
12	121	23.101374028226	0
12	122	23.301374028226	0
12	123	23.501374028226	0
12	124	23.701374028226	0
12	125	23.901374028226	0
12	126	24.101374028226	0
12	127	24.301374028226	0
12	128	24.474359485909	0
12	129	24.674359485909	0
12	130	24.874359485909	0
12	131	25.074359485909	0
12	132	25.274359485909	0
12	133	25.474359485909	0
12	134	25.674359485909	0
12	135	25.874359485909	0
12	136	26.074359485909	0
12	137	26.274359485909	0
12	138	26.373225923128	0
12	139	26.573225923128	0
12	140	26.773225923128	0
12	141	26.973225923128	0
12	142	27.173225923128	0
12	143	27.373225923128	0
12	144	27.573225923128	0
12	145	27.773225923128	0
12	146	27.875259928048	0
12	147	28.075259928048	0
12	148	28.275259928048	0
12	149	28.475259928048	0
12	150	28.675259928048	0
12	151	28.875259928048	0
12	152	29.075259928048	0
12	153	29.275259928048	0
12	154	29.475259928048	0
12	155	29.675259928048	0
12	156	29.875259928048	0
12	157	30.075259928048	0
12	158	30.275259928048	0
12	159	30.349271647886	0
12	160	30.549271647886	0
12	161	30.749271647886	0
12	162	30.949271647886	0
12	163	31.149271647886	0
12	164	31.349271647886	0
12	165	31.549271647886	0
12	166	31.749271647886	0
12	167	31.949271647886	0
12	168	32.149271647886	0
12	169	32.224952427911	0
12	170	32.424952427911	0
12	171	32.624952427911	0
12	172	32.824952427911	0
12	173	33.024952427911	0
12	174	33.224952427911	0
12	175	33.424952427911	0
12	176	33.624952427911	0
12	177	33.824952427911	0