version 3
run CNPF-2-20240912-08:19:27-54225
attr configname CNPF
attr datetime 20240912-08:19:27
attr datetimef 20240912-081927
attr experiment CNPF
attr inifile omnetpp.ini
attr iterationvars $0=10
attr iterationvarsd 10
attr iterationvarsf 10-
attr measurement $0=10
attr network ParcelDeliveryNetwork
attr processid 54225
attr repetition 2
attr replication #2
attr resultdir results
attr runnumber 2
attr seedset 2
config image-path ../inet/images
config network ParcelDeliveryNetwork
config description "1 drones, 30 destinations, 30 parcels, "
config *.numdrones 1
config **.drone*.mobility.typename DroneNetMob
config **.drone[*].mobility.ndst 10
config **.drone[*].mobility.nd 8
config **.drone[*].mobility.npar 30
config **.drone[*].mobility.initFromDisplayString false
config **.drone[*].mobility.changeInterval "truncnormal(2s, 0.5s)"
config **.drone[*].mobility.angleDelta "normal(0deg, 30deg)"
config **.drone[*].mobility.speed 10mps
config **.drone[*].mobility.remainingBattery 480
config **.drone[*].mobility.weightCapacity 100
config **.drone[*].mobility.parcelSelectionMethod 0
config **.drone[*].mobility.initialX 0m
config **.drone[*].mobility.initialY 0m
config **.drone[*].mobility.initialZ 0m
config repeat 10
config sim-time-limit 80second
config **.constraintAreaMinX 0m
config **.constraintAreaMinY 0m
config **.constraintAreaMinZ 0m
config **.constraintAreaMaxX 600m
config **.constraintAreaMaxY 400m
config **.constraintAreaMaxZ 0m
config **.updateInterval 0.2s

vector 0 ParcelDeliveryNetwork.gcs.wlan[0].mac.dcf frameSequenceActive:vector ETV
attr autoWarmupFilter false
attr interpolationmode sample-hold
attr recordingmode vector
attr source warmup(count(frameSequenceStarted)-count(frameSequenceFinished))
attr title "frame sequence active"
vector 1 ParcelDeliveryNetwork.gcs.wlan[0].mac.dcf.channelAccess.pendingQueue queueLength:vector ETV
attr autoWarmupFilter false
attr interpolationmode sample-hold
attr recordingmode vector
attr source "warmup(atomic(constant0(packetPushEnded) + count(packetPushStarted) - count(packetPulled) - count(packetRemoved) - count(packetDropped)))"
attr title "queue length"
attr unit pk
vector 2 ParcelDeliveryNetwork.gcs.wlan[0].mac.dcf.channelAccess.pendingQueue queueBitLength:vector ETV
attr autoWarmupFilter false
attr interpolationmode sample-hold
attr recordingmode vector
attr source "warmup(atomic(constant0(packetPushEnded) + sum(packetLength(packetPushStarted)) - sum(packetLength(packetPulled)) - sum(packetLength(packetRemoved)) - sum(packetLength(packetDropped))))"
attr title "queue bit length"
attr unit b
vector 3 ParcelDeliveryNetwork.gcs.wlan[0].mac.dcf.channelAccess.inProgressFrames queueLength:vector ETV
attr autoWarmupFilter false
attr interpolationmode sample-hold
attr recordingmode vector
attr source "warmup(count(packetEnqueued) - count(packetDequeued))"
attr title "queue length"
vector 4 ParcelDeliveryNetwork.gcs.wlan[0].mac.dcf.channelAccess.contention backoffActive:vector ETV
attr autoWarmupFilter false
attr interpolationmode sample-hold
attr recordingmode vector
attr source warmup(count(backoffStarted)-count(backoffStopped))
attr title "backoff active"
vector 5 ParcelDeliveryNetwork.gcs.udp passedUpPk:vector(count) ETV
attr interpolationmode none
attr recordingmode vector(count)
attr source packetSentToUpper
attr title "packets passed up, count"
vector 6 ParcelDeliveryNetwork.gcs.udp droppedPkWrongPort:vector(count) ETV
attr interpolationmode none
attr recordingmode vector(count)
attr source packetDropReasonIsNoPortFound(packetDropped)
attr title "packets dropped (wrong port), count"
vector 7 ParcelDeliveryNetwork.gcs.udp droppedPkBadChecksum:vector(count) ETV
attr interpolationmode none
attr recordingmode vector(count)
attr source packetDropReasonIsIncorrectlyReceived(packetDropped)
attr title "packets dropped (checksum error), count"
vector 8 ParcelDeliveryNetwork.gcs.wlan[0].radio radioMode:vector ETV
attr interpolationmode sample-hold
attr recordingmode vector
attr source radioModeChanged
attr title "Radio mode"
vector 9 ParcelDeliveryNetwork.gcs.wlan[0].radio radioChannel:vector ETV
attr interpolationmode sample-hold
attr recordingmode vector
attr source radioChannelChanged
attr title "Radio channel"
vector 10 ParcelDeliveryNetwork.drone[0] coordX:vector ETV
attr interpolationmode linear
attr recordingmode vector
attr source xCoord(mobilityPos(mobilityStateChanged))
attr title "coord X"
vector 11 ParcelDeliveryNetwork.drone[0] coordY:vector ETV
attr interpolationmode linear
attr recordingmode vector
attr source yCoord(mobilityPos(mobilityStateChanged))
attr title "coord Y"
vector 12 ParcelDeliveryNetwork.drone[0] coordZ:vector ETV
attr interpolationmode linear
attr recordingmode vector
attr source zCoord(mobilityPos(mobilityStateChanged))
attr title "coord Z"
vector 13 ParcelDeliveryNetwork.gcs.wlan[0].radio receptionState:vector ETV
attr interpolationmode sample-hold
attr recordingmode vector
attr source receptionStateChanged
attr title "Radio reception state"
vector 14 ParcelDeliveryNetwork.gcs.wlan[0].mac.dcf.channelAccess.contention stateChanged:vector ETV
attr enum IDLE,DEFER,IFS_AND_BACKOFF
attr interpolationmode none
attr recordingmode vector
attr title "contention state changed"
attr type enum
vector 15 ParcelDeliveryNetwork.gcs.wlan[0].mac.dcf.recoveryProcedure contentionWindowChanged:vector ETV
attr interpolationmode sample-hold
attr recordingmode vector
attr title "contention window"
0	0	0	0
0	0	0	0
1	0	0	0
1	0	0	0
1	0	0	0
1	0	0	0
1	0	0	0
2	0	0	0
2	0	0	0
2	0	0	0
2	0	0	0
2	0	0	0
3	0	0	0
3	0	0	0
4	0	0	0
4	0	0	0
5	0	0	0
6	0	0	0
7	0	0	0
8	0	0	0
8	0	0	0
8	0	0	2
9	0	0	0
10	0	0	0
10	1	0.2	0
10	2	0.4	0
10	3	0.6	0
10	4	0.8	0
10	5	1	0
10	6	1.2	0
10	7	1.4	0
10	8	1.6	0
10	9	1.8	0
10	10	2	0
10	11	2.2	0
10	12	2.4	0
10	13	2.597813651971	0
10	14	2.797813651971	0
10	15	2.997813651971	0
10	16	3.197813651971	0
10	17	3.397813651971	0
10	18	3.597813651971	0
10	19	3.797813651971	0
10	20	3.997813651971	0
10	21	4.065709959072	0
10	22	4.265709959072	0
10	23	4.465709959072	0
10	24	4.665709959072	0
10	25	4.865709959072	0
10	26	5.065709959072	0
10	27	5.265709959072	0
10	28	5.465709959072	0
10	29	5.665709959072	0
10	30	5.841781662555	0
10	31	6.041781662555	0
10	32	6.241781662555	0
10	33	6.441781662555	0
10	34	6.641781662555	0
10	35	6.841781662555	0
10	36	7.041781662555	0
10	37	7.241781662555	0
10	38	7.441781662555	0
10	39	7.641781662555	0
10	40	7.841781662555	0
10	41	8.041781662555	0
10	42	8.094792341108	0
10	43	8.294792341108	0
10	44	8.494792341108	0
10	45	8.694792341108	0
10	46	8.894792341108	0
10	47	9.094792341108	0
10	48	9.294792341108	0
10	49	9.494792341108	0
10	50	9.694792341108	0
10	51	9.894792341108	0
10	52	9.987937341992	0
10	53	10.187937341992	0
10	54	10.387937341992	0
10	55	10.587937341992	0
10	56	10.787937341992	0
10	57	10.987937341992	0
10	58	11.187937341992	0
10	59	11.387937341992	0
10	60	11.587937341992	0
10	61	11.787937341992	0
10	62	11.987937341992	0
10	63	12.187937341992	0
10	64	12.387937341992	0
10	65	12.494617979014	0
10	66	12.694617979014	0
10	67	12.894617979014	0
10	68	13.094617979014	0
10	69	13.294617979014	0
10	70	13.494617979014	0
10	71	13.694617979014	0
10	72	13.894617979014	0
10	73	14.074439081999	0
10	74	14.274439081999	0
10	75	14.474439081999	0
10	76	14.674439081999	0
10	77	14.874439081999	0
10	78	15.074439081999	0
10	79	15.274439081999	0
10	80	15.474439081999	0
10	81	15.674439081999	0
10	82	15.809749534	0
10	83	16.009749534	0
10	84	16.209749534	0
10	85	16.409749534	0
10	86	16.609749534	0
10	87	16.809749534	0
10	88	17.009749534	0
10	89	17.209749534	0
10	90	17.409749534	0
10	91	17.609749534	0
10	92	17.809749534	0
10	93	18.009749534	0
10	94	18.099316711854	0
10	95	18.299316711854	0
10	96	18.499316711854	0
10	97	18.699316711854	0
10	98	18.899316711854	0
10	99	19.099316711854	0
10	100	19.299316711854	0
10	101	19.499316711854	0
10	102	19.699316711854	0
10	103	19.848629660677	0
10	104	20.048629660677	0
10	105	20.248629660677	0
10	106	20.448629660677	0
10	107	20.648629660677	0
10	108	20.848629660677	0
10	109	21.048629660677	0
10	110	21.248629660677	0
10	111	21.448629660677	0
10	112	21.579809589625	0
10	113	21.779809589625	0
10	114	21.979809589625	0
10	115	22.179809589625	0
10	116	22.379809589625	0
10	117	22.579809589625	0
10	118	22.779809589625	0
10	119	22.979809589625	0
10	120	23.066603888504	0
10	121	23.266603888504	0
10	122	23.466603888504	0
10	123	23.666603888504	0
10	124	23.866603888504	0
10	125	24.066603888504	0
10	126	24.266603888504	0
10	127	24.466603888504	0
10	128	24.666603888504	0
10	129	24.866603888504	0
10	130	25.006292450129	0
10	131	25.206292450129	0
10	132	25.406292450129	0
10	133	25.606292450129	0
10	134	25.806292450129	0
10	135	26.006292450129	0
10	136	26.206292450129	0
10	137	26.406292450129	0
10	138	26.606292450129	0
10	139	26.806292450129	0
10	140	26.95948088635	0
10	141	27.15948088635	0
10	142	27.35948088635	0
10	143	27.55948088635	0
10	144	27.75948088635	0
10	145	27.95948088635	0
10	146	28.019717358721	0
10	147	28.219717358721	0
10	148	28.419717358721	0
10	149	28.619717358721	0
10	150	28.819717358721	0
10	151	29.019717358721	0
10	152	29.219717358721	0
10	153	29.419717358721	0
10	154	29.532145393942	0
10	155	29.732145393942	0
10	156	29.932145393942	0
10	157	30.132145393942	0
10	158	30.332145393942	0
10	159	30.532145393942	0
10	160	30.732145393942	0
10	161	30.932145393942	0
10	162	31.132145393942	0
10	163	31.332145393942	0
10	164	31.532145393942	0
10	165	31.732145393942	0
10	166	31.932145393942	0
10	167	31.960865804286	0
10	168	32.160865804286	0
10	169	32.360865804286	0
10	170	32.560865804286	0
10	171	32.760865804286	0
10	172	32.960865804286	0
10	173	33.160865804286	0
10	174	33.360865804286	0
10	175	33.560865804286	0
10	176	33.760865804286	0
10	177	33.960865804286	0
10	178	34.160865804286	0
10	179	34.160879804496	0
10	180	34.360879804496	0
10	181	34.560879804496	0
10	182	34.760879804496	0
10	183	34.960879804496	0
10	184	35.160879804496	0
10	185	35.360879804496	0
10	186	35.560879804496	0
10	187	35.760879804496	0
10	188	35.960879804496	0
10	189	35.988181216078	0
10	190	36.188181216078	0
10	191	36.388181216078	0
10	192	36.588181216078	0
10	193	36.788181216078	0
10	194	36.988181216078	0
10	195	37.188181216078	0
10	196	37.388181216078	0
10	197	37.588181216078	0
10	198	37.788181216078	0
10	199	37.94487583504	0
10	200	38.14487583504	0
10	201	38.34487583504	0
10	202	38.54487583504	0
10	203	38.74487583504	0
10	204	38.94487583504	0
10	205	39.14487583504	0
10	206	39.34487583504	0
10	207	39.54487583504	0
10	208	39.74487583504	0
10	209	39.94487583504	0
10	210	40.14487583504	0
10	211	40.338750375917	0
10	212	40.538750375917	0
10	213	40.738750375917	0
10	214	40.938750375917	0
10	215	41.138750375917	0
10	216	41.338750375917	0
10	217	41.538750375917	0
10	218	41.738750375917	0
10	219	41.938750375917	0
10	220	42.138750375917	0
10	221	42.338750375917	0
10	222	42.432457595477	0
10	223	42.632457595477	0
10	224	42.832457595477	0
10	225	43.032457595477	0
10	226	43.232457595477	0
10	227	43.432457595477	0
10	228	43.632457595477	0
10	229	43.832457595477	0
10	230	44.032457595477	0
10	231	44.171854461249	0
10	232	44.371854461249	0
10	233	44.571854461249	0
10	234	44.771854461249	0
10	235	44.971854461249	0
10	236	45.171854461249	0
10	237	45.371854461249	0
10	238	45.554705863544	0
10	239	45.754705863544	0
10	240	45.954705863544	0
10	241	46.154705863544	0
10	242	46.354705863544	0
10	243	46.554705863544	0
10	244	46.754705863544	0
10	245	46.954705863544	0
10	246	47.154705863544	0
10	247	47.354705863544	0
10	248	47.554705863544	0
10	249	47.617713262427	0
10	250	47.817713262427	0
10	251	48.017713262427	0
10	252	48.217713262427	0
10	253	48.417713262427	0
10	254	48.617713262427	0
10	255	48.817713262427	0
10	256	49.017713262427	0
10	257	49.217713262427	0
10	258	49.417713262427	0
10	259	49.617713262427	0
10	260	49.643796153302	0
10	261	49.843796153302	0
10	262	50.043796153302	0
10	263	50.243796153302	0
10	264	50.443796153302	0
10	265	50.643796153302	0
10	266	50.843796153302	0
10	267	51.043796153302	0
10	268	51.243796153302	0
10	269	51.331855967596	0
10	270	51.531855967596	0
10	271	51.731855967596	0
10	272	51.931855967596	0
10	273	52.131855967596	0
10	274	52.331855967596	0
10	275	52.531855967596	0
10	276	52.731855967596	0
10	277	52.931855967596	0
10	278	53.131855967596	0
10	279	53.331855967596	0
10	280	53.531855967596	0
10	281	53.560909255393	0
10	282	53.760909255393	0
10	283	53.960909255393	0
10	284	54.160909255393	0
10	285	54.360909255393	0
10	286	54.560909255393	0
10	287	54.760909255393	0
10	288	54.960909255393	0
10	289	55.160909255393	0
10	290	55.183043137282	0
10	291	55.383043137282	0
10	292	55.583043137282	0
10	293	55.783043137282	0
10	294	55.983043137282	0
10	295	56.183043137282	0
10	296	56.383043137282	0
10	297	56.583043137282	0
10	298	56.783043137282	0
10	299	56.853871759605	0
10	300	57.053871759605	0
10	301	57.253871759605	0
10	302	57.453871759605	0
10	303	57.653871759605	0
10	304	57.853871759605	0
10	305	58.053871759605	0
10	306	58.253871759605	0
10	307	58.449194199605	0
10	308	58.649194199605	0
10	309	58.849194199605	0
10	310	59.049194199605	0
10	311	59.249194199605	0
10	312	59.449194199605	0
10	313	59.649194199605	0
10	314	59.849194199605	0
10	315	60.049194199605	0
10	316	60.249194199605	0
10	317	60.449194199605	0
10	318	60.602812111787	0
10	319	60.802812111787	0
10	320	61.002812111787	0
10	321	61.202812111787	0
10	322	61.402812111787	0
10	323	61.602812111787	0
10	324	61.802812111787	0
10	325	62.002812111787	0
10	326	62.202812111787	0
10	327	62.294674404419	0
10	328	62.494674404419	0
10	329	62.694674404419	0
10	330	62.894674404419	0
10	331	63.094674404419	0
10	332	63.294674404419	0
10	333	63.494674404419	0
10	334	63.694674404419	0
10	335	63.894674404419	0
10	336	63.919665269993	0
10	337	64.119665269993	0
10	338	64.319665269993	0
10	339	64.519665269993	0
10	340	64.719665269993	0
10	341	64.919665269993	0
10	342	65.119665269993	0
10	343	65.319665269993	0
10	344	65.519665269993	0
10	345	65.719665269993	0
10	346	65.919665269993	0
10	347	66.119665269993	0
10	348	66.319665269993	0
10	349	66.519665269993	0
10	350	66.719665269993	0
10	351	66.806489006527	0
10	352	67.006489006527	0
10	353	67.206489006527	0
10	354	67.406489006527	0
10	355	67.606489006527	0
10	356	67.806489006527	0
10	357	68.006489006527	0
10	358	68.206489006527	0
10	359	68.406489006527	0
10	360	68.606489006527	0
10	361	68.806489006527	0
10	362	69.006489006527	0
10	363	69.206489006527	0
10	364	69.288045374018	0
10	365	69.488045374018	0
10	366	69.688045374018	0
10	367	69.888045374018	0
10	368	70.088045374018	0
10	369	70.288045374018	0
10	370	70.488045374018	0
10	371	70.688045374018	0
10	372	70.888045374018	0
10	373	71.088045374018	0
10	374	71.288045374018	0
10	375	71.465115296944	0
10	376	71.665115296944	0
10	377	71.865115296944	0
10	378	72.065115296944	0
10	379	72.265115296944	0
10	380	72.465115296944	0
10	381	72.665115296944	0
10	382	72.865115296944	0
10	383	73.065115296944	0
10	384	73.265115296944	0
10	385	73.465115296944	0
10	386	73.665115296944	0
10	387	73.865115296944	0
10	388	73.930598603789	0
10	389	74.130598603789	0
10	390	74.330598603789	0
10	391	74.530598603789	0
10	392	74.640692997786	0
10	393	74.840692997786	0
10	394	75.040692997786	0
10	395	75.240692997786	0
10	396	75.440692997786	0
10	397	75.640692997786	0
10	398	75.840692997786	0
10	399	76.040692997786	0
10	400	76.240692997786	0
10	401	76.440692997786	0
10	402	76.640692997786	0
10	403	76.760909591271	0
10	404	76.960909591271	0
10	405	77.160909591271	0
10	406	77.360909591271	0
10	407	77.560909591271	0
10	408	77.760909591271	0
10	409	77.960909591271	0
10	410	78.160909591271	0
10	411	78.360909591271	0
10	412	78.560909591271	0
10	413	78.760909591271	0
10	414	78.960909591271	0
10	415	79.160909591271	0
10	416	79.360909591271	0
10	417	79.560909591271	0
10	418	79.760909591271	0
10	419	79.809475347302	0
11	0	0	0
11	1	0.2	0
11	2	0.4	0
11	3	0.6	0
11	4	0.8	0
11	5	1	0
11	6	1.2	0
11	7	1.4	0
11	8	1.6	0
11	9	1.8	0
11	10	2	0
11	11	2.2	0
11	12	2.4	0
11	13	2.597813651971	0
11	14	2.797813651971	0
11	15	2.997813651971	0
11	16	3.197813651971	0
11	17	3.397813651971	0
11	18	3.597813651971	0
11	19	3.797813651971	0
11	20	3.997813651971	0
11	21	4.065709959072	0
11	22	4.265709959072	0
11	23	4.465709959072	0
11	24	4.665709959072	0
11	25	4.865709959072	0
11	26	5.065709959072	0
11	27	5.265709959072	0
11	28	5.465709959072	0
11	29	5.665709959072	0
11	30	5.841781662555	0
11	31	6.041781662555	0
11	32	6.241781662555	0
11	33	6.441781662555	0
11	34	6.641781662555	0
11	35	6.841781662555	0
11	36	7.041781662555	0
11	37	7.241781662555	0
11	38	7.441781662555	0
11	39	7.641781662555	0
11	40	7.841781662555	0
11	41	8.041781662555	0
11	42	8.094792341108	0
11	43	8.294792341108	0
11	44	8.494792341108	0
11	45	8.694792341108	0
11	46	8.894792341108	0
11	47	9.094792341108	0
11	48	9.294792341108	0
11	49	9.494792341108	0
11	50	9.694792341108	0
11	51	9.894792341108	0
11	52	9.987937341992	0
11	53	10.187937341992	0
11	54	10.387937341992	0
11	55	10.587937341992	0
11	56	10.787937341992	0
11	57	10.987937341992	0
11	58	11.187937341992	0
11	59	11.387937341992	0
11	60	11.587937341992	0
11	61	11.787937341992	0
11	62	11.987937341992	0
11	63	12.187937341992	0
11	64	12.387937341992	0
11	65	12.494617979014	0
11	66	12.694617979014	0
11	67	12.894617979014	0
11	68	13.094617979014	0
11	69	13.294617979014	0
11	70	13.494617979014	0
11	71	13.694617979014	0
11	72	13.894617979014	0
11	73	14.074439081999	0
11	74	14.274439081999	0
11	75	14.474439081999	0
11	76	14.674439081999	0
11	77	14.874439081999	0
11	78	15.074439081999	0
11	79	15.274439081999	0
11	80	15.474439081999	0
11	81	15.674439081999	0
11	82	15.809749534	0
11	83	16.009749534	0
11	84	16.209749534	0
11	85	16.409749534	0
11	86	16.609749534	0
11	87	16.809749534	0
11	88	17.009749534	0
11	89	17.209749534	0
11	90	17.409749534	0
11	91	17.609749534	0
11	92	17.809749534	0
11	93	18.009749534	0
11	94	18.099316711854	0
11	95	18.299316711854	0
11	96	18.499316711854	0
11	97	18.699316711854	0
11	98	18.899316711854	0
11	99	19.099316711854	0
11	100	19.299316711854	0
11	101	19.499316711854	0
11	102	19.699316711854	0
11	103	19.848629660677	0
11	104	20.048629660677	0
11	105	20.248629660677	0
11	106	20.448629660677	0
11	107	20.648629660677	0
11	108	20.848629660677	0
11	109	21.048629660677	0
11	110	21.248629660677	0
11	111	21.448629660677	0
11	112	21.579809589625	0
11	113	21.779809589625	0
11	114	21.979809589625	0
11	115	22.179809589625	0
11	116	22.379809589625	0
11	117	22.579809589625	0
11	118	22.779809589625	0
11	119	22.979809589625	0
11	120	23.066603888504	0
11	121	23.266603888504	0
11	122	23.466603888504	0
11	123	23.666603888504	0
11	124	23.866603888504	0
11	125	24.066603888504	0
11	126	24.266603888504	0
11	127	24.466603888504	0
11	128	24.666603888504	0
11	129	24.866603888504	0
11	130	25.006292450129	0
11	131	25.206292450129	0
11	132	25.406292450129	0
11	133	25.606292450129	0
11	134	25.806292450129	0
11	135	26.006292450129	0
11	136	26.206292450129	0
11	137	26.406292450129	0
11	138	26.606292450129	0
11	139	26.806292450129	0
11	140	26.95948088635	0
11	141	27.15948088635	0
11	142	27.35948088635	0
11	143	27.55948088635	0
11	144	27.75948088635	0
11	145	27.95948088635	0
11	146	28.019717358721	0
11	147	28.219717358721	0
11	148	28.419717358721	0
11	149	28.619717358721	0
11	150	28.819717358721	0
11	151	29.019717358721	0
11	152	29.219717358721	0
11	153	29.419717358721	0
11	154	29.532145393942	0
11	155	29.732145393942	0
11	156	29.932145393942	0
11	157	30.132145393942	0
11	158	30.332145393942	0
11	159	30.532145393942	0
11	160	30.732145393942	0
11	161	30.932145393942	0
11	162	31.132145393942	0
11	163	31.332145393942	0
11	164	31.532145393942	0
11	165	31.732145393942	0
11	166	31.932145393942	0
11	167	31.960865804286	0
11	168	32.160865804286	0
11	169	32.360865804286	0
11	170	32.560865804286	0
11	171	32.760865804286	0
11	172	32.960865804286	0
11	173	33.160865804286	0
11	174	33.360865804286	0
11	175	33.560865804286	0
11	176	33.760865804286	0
11	177	33.960865804286	0
11	178	34.160865804286	0
11	179	34.160879804496	0
11	180	34.360879804496	0
11	181	34.560879804496	0
11	182	34.760879804496	0
11	183	34.960879804496	0
11	184	35.160879804496	0
11	185	35.360879804496	0
11	186	35.560879804496	0
11	187	35.760879804496	0
11	188	35.960879804496	0
11	189	35.988181216078	0
11	190	36.188181216078	0
11	191	36.388181216078	0
11	192	36.588181216078	0
11	193	36.788181216078	0
11	194	36.988181216078	0
11	195	37.188181216078	0
11	196	37.388181216078	0
11	197	37.588181216078	0
11	198	37.788181216078	0
11	199	37.94487583504	0
11	200	38.14487583504	0
11	201	38.34487583504	0
11	202	38.54487583504	0
11	203	38.74487583504	0
11	204	38.94487583504	0
11	205	39.14487583504	0
11	206	39.34487583504	0
11	207	39.54487583504	0
11	208	39.74487583504	0
11	209	39.94487583504	0
11	210	40.14487583504	0
11	211	40.338750375917	0
11	212	40.538750375917	0
11	213	40.738750375917	0
11	214	40.938750375917	0
11	215	41.138750375917	0
11	216	41.338750375917	0
11	217	41.538750375917	0
11	218	41.738750375917	0
11	219	41.938750375917	0
11	220	42.138750375917	0
11	221	42.338750375917	0
11	222	42.432457595477	0
11	223	42.632457595477	0
11	224	42.832457595477	0
11	225	43.032457595477	0
11	226	43.232457595477	0
11	227	43.432457595477	0
11	228	43.632457595477	0
11	229	43.832457595477	0
11	230	44.032457595477	0
11	231	44.171854461249	0
11	232	44.371854461249	0
11	233	44.571854461249	0
11	234	44.771854461249	0
11	235	44.971854461249	0
11	236	45.171854461249	0
11	237	45.371854461249	0
11	238	45.554705863544	0
11	239	45.754705863544	0
11	240	45.954705863544	0
11	241	46.154705863544	0
11	242	46.354705863544	0
11	243	46.554705863544	0
11	244	46.754705863544	0
11	245	46.954705863544	0
11	246	47.154705863544	0
11	247	47.354705863544	0
11	248	47.554705863544	0
11	249	47.617713262427	0
11	250	47.817713262427	0
11	251	48.017713262427	0
11	252	48.217713262427	0
11	253	48.417713262427	0
11	254	48.617713262427	0
11	255	48.817713262427	0
11	256	49.017713262427	0
11	257	49.217713262427	0
11	258	49.417713262427	0
11	259	49.617713262427	0
11	260	49.643796153302	0
11	261	49.843796153302	0
11	262	50.043796153302	0
11	263	50.243796153302	0
11	264	50.443796153302	0
11	265	50.643796153302	0
11	266	50.843796153302	0
11	267	51.043796153302	0
11	268	51.243796153302	0
11	269	51.331855967596	0
11	270	51.531855967596	0
11	271	51.731855967596	0
11	272	51.931855967596	0
11	273	52.131855967596	0
11	274	52.331855967596	0
11	275	52.531855967596	0
11	276	52.731855967596	0
11	277	52.931855967596	0
11	278	53.131855967596	0
11	279	53.331855967596	0
11	280	53.531855967596	0
11	281	53.560909255393	0
11	282	53.760909255393	0
11	283	53.960909255393	0
11	284	54.160909255393	0
11	285	54.360909255393	0
11	286	54.560909255393	0
11	287	54.760909255393	0
11	288	54.960909255393	0
11	289	55.160909255393	0
11	290	55.183043137282	0
11	291	55.383043137282	0
11	292	55.583043137282	0
11	293	55.783043137282	0
11	294	55.983043137282	0
11	295	56.183043137282	0
11	296	56.383043137282	0
11	297	56.583043137282	0
11	298	56.783043137282	0
11	299	56.853871759605	0
11	300	57.053871759605	0
11	301	57.253871759605	0
11	302	57.453871759605	0
11	303	57.653871759605	0
11	304	57.853871759605	0
11	305	58.053871759605	0
11	306	58.253871759605	0
11	307	58.449194199605	0
11	308	58.649194199605	0
11	309	58.849194199605	0
11	310	59.049194199605	0
11	311	59.249194199605	0
11	312	59.449194199605	0
11	313	59.649194199605	0
11	314	59.849194199605	0
11	315	60.049194199605	0
11	316	60.249194199605	0
11	317	60.449194199605	0
11	318	60.602812111787	0
11	319	60.802812111787	0
11	320	61.002812111787	0
11	321	61.202812111787	0
11	322	61.402812111787	0
11	323	61.602812111787	0
11	324	61.802812111787	0
11	325	62.002812111787	0
11	326	62.202812111787	0
11	327	62.294674404419	0
11	328	62.494674404419	0
11	329	62.694674404419	0
11	330	62.894674404419	0
11	331	63.094674404419	0
11	332	63.294674404419	0
11	333	63.494674404419	0
11	334	63.694674404419	0
11	335	63.894674404419	0
11	336	63.919665269993	0
11	337	64.119665269993	0
11	338	64.319665269993	0
11	339	64.519665269993	0
11	340	64.719665269993	0
11	341	64.919665269993	0
11	342	65.119665269993	0
11	343	65.319665269993	0
11	344	65.519665269993	0
11	345	65.719665269993	0
11	346	65.919665269993	0
11	347	66.119665269993	0
11	348	66.319665269993	0
11	349	66.519665269993	0
11	350	66.719665269993	0
11	351	66.806489006527	0
11	352	67.006489006527	0
11	353	67.206489006527	0
11	354	67.406489006527	0
11	355	67.606489006527	0
11	356	67.806489006527	0
11	357	68.006489006527	0
11	358	68.206489006527	0
11	359	68.406489006527	0
11	360	68.606489006527	0
11	361	68.806489006527	0
11	362	69.006489006527	0
11	363	69.206489006527	0
11	364	69.288045374018	0
11	365	69.488045374018	0
11	366	69.688045374018	0
11	367	69.888045374018	0
11	368	70.088045374018	0
11	369	70.288045374018	0
11	370	70.488045374018	0
11	371	70.688045374018	0
11	372	70.888045374018	0
11	373	71.088045374018	0
11	374	71.288045374018	0
11	375	71.465115296944	0
11	376	71.665115296944	0
11	377	71.865115296944	0
11	378	72.065115296944	0
11	379	72.265115296944	0
11	380	72.465115296944	0
11	381	72.665115296944	0
11	382	72.865115296944	0
11	383	73.065115296944	0
11	384	73.265115296944	0
11	385	73.465115296944	0
11	386	73.665115296944	0
11	387	73.865115296944	0
11	388	73.930598603789	0
11	389	74.130598603789	0
11	390	74.330598603789	0
11	391	74.530598603789	0
11	392	74.640692997786	0
11	393	74.840692997786	0
11	394	75.040692997786	0
11	395	75.240692997786	0
11	396	75.440692997786	0
11	397	75.640692997786	0
11	398	75.840692997786	0
11	399	76.040692997786	0
11	400	76.240692997786	0
11	401	76.440692997786	0
11	402	76.640692997786	0
11	403	76.760909591271	0
11	404	76.960909591271	0
11	405	77.160909591271	0
11	406	77.360909591271	0
11	407	77.560909591271	0
11	408	77.760909591271	0
11	409	77.960909591271	0
11	410	78.160909591271	0
11	411	78.360909591271	0
11	412	78.560909591271	0
11	413	78.760909591271	0
11	414	78.960909591271	0
11	415	79.160909591271	0
11	416	79.360909591271	0
11	417	79.560909591271	0
11	418	79.760909591271	0
11	419	79.809475347302	0
12	0	0	0
12	1	0.2	0
12	2	0.4	0
12	3	0.6	0
12	4	0.8	0
12	5	1	0
12	6	1.2	0
12	7	1.4	0
12	8	1.6	0
12	9	1.8	0
12	10	2	0
12	11	2.2	0
12	12	2.4	0
12	13	2.597813651971	0
12	14	2.797813651971	0
12	15	2.997813651971	0
12	16	3.197813651971	0
12	17	3.397813651971	0
12	18	3.597813651971	0
12	19	3.797813651971	0
12	20	3.997813651971	0
12	21	4.065709959072	0
12	22	4.265709959072	0
12	23	4.465709959072	0
12	24	4.665709959072	0
12	25	4.865709959072	0
12	26	5.065709959072	0
12	27	5.265709959072	0
12	28	5.465709959072	0
12	29	5.665709959072	0
12	30	5.841781662555	0
12	31	6.041781662555	0
12	32	6.241781662555	0
12	33	6.441781662555	0
12	34	6.641781662555	0
12	35	6.841781662555	0
12	36	7.041781662555	0
12	37	7.241781662555	0
12	38	7.441781662555	0
12	39	7.641781662555	0
12	40	7.841781662555	0
12	41	8.041781662555	0
12	42	8.094792341108	0
12	43	8.294792341108	0
12	44	8.494792341108	0
12	45	8.694792341108	0
12	46	8.894792341108	0
12	47	9.094792341108	0
12	48	9.294792341108	0
12	49	9.494792341108	0
12	50	9.694792341108	0
12	51	9.894792341108	0
12	52	9.987937341992	0
12	53	10.187937341992	0
12	54	10.387937341992	0
12	55	10.587937341992	0
12	56	10.787937341992	0
12	57	10.987937341992	0
12	58	11.187937341992	0
12	59	11.387937341992	0
12	60	11.587937341992	0
12	61	11.787937341992	0
12	62	11.987937341992	0
12	63	12.187937341992	0
12	64	12.387937341992	0
12	65	12.494617979014	0
12	66	12.694617979014	0
12	67	12.894617979014	0
12	68	13.094617979014	0
12	69	13.294617979014	0
12	70	13.494617979014	0
12	71	13.694617979014	0
12	72	13.894617979014	0
12	73	14.074439081999	0
12	74	14.274439081999	0
12	75	14.474439081999	0
12	76	14.674439081999	0
12	77	14.874439081999	0
12	78	15.074439081999	0
12	79	15.274439081999	0
12	80	15.474439081999	0
12	81	15.674439081999	0
12	82	15.809749534	0
12	83	16.009749534	0
12	84	16.209749534	0
12	85	16.409749534	0
12	86	16.609749534	0
12	87	16.809749534	0
12	88	17.009749534	0
12	89	17.209749534	0
12	90	17.409749534	0
12	91	17.609749534	0
12	92	17.809749534	0
12	93	18.009749534	0
12	94	18.099316711854	0
12	95	18.299316711854	0
12	96	18.499316711854	0
12	97	18.699316711854	0
12	98	18.899316711854	0
12	99	19.099316711854	0
12	100	19.299316711854	0
12	101	19.499316711854	0
12	102	19.699316711854	0
12	103	19.848629660677	0
12	104	20.048629660677	0
12	105	20.248629660677	0
12	106	20.448629660677	0
12	107	20.648629660677	0
12	108	20.848629660677	0
12	109	21.048629660677	0
12	110	21.248629660677	0
12	111	21.448629660677	0
12	112	21.579809589625	0
12	113	21.779809589625	0
12	114	21.979809589625	0
12	115	22.179809589625	0
12	116	22.379809589625	0
12	117	22.579809589625	0
12	118	22.779809589625	0
12	119	22.979809589625	0
12	120	23.066603888504	0
12	121	23.266603888504	0
12	122	23.466603888504	0
12	123	23.666603888504	0
12	124	23.866603888504	0
12	125	24.066603888504	0
12	126	24.266603888504	0
12	127	24.466603888504	0
12	128	24.666603888504	0
12	129	24.866603888504	0
12	130	25.006292450129	0
12	131	25.206292450129	0
12	132	25.406292450129	0
12	133	25.606292450129	0
12	134	25.806292450129	0
12	135	26.006292450129	0
12	136	26.206292450129	0
12	137	26.406292450129	0
12	138	26.606292450129	0
12	139	26.806292450129	0
12	140	26.95948088635	0
12	141	27.15948088635	0
12	142	27.35948088635	0
12	143	27.55948088635	0
12	144	27.75948088635	0
12	145	27.95948088635	0
12	146	28.019717358721	0
12	147	28.219717358721	0
12	148	28.419717358721	0
12	149	28.619717358721	0
12	150	28.819717358721	0
12	151	29.019717358721	0
12	152	29.219717358721	0
12	153	29.419717358721	0
12	154	29.532145393942	0
12	155	29.732145393942	0
12	156	29.932145393942	0
12	157	30.132145393942	0
12	158	30.332145393942	0
12	159	30.532145393942	0
12	160	30.732145393942	0
12	161	30.932145393942	0
12	162	31.132145393942	0
12	163	31.332145393942	0
12	164	31.532145393942	0
12	165	31.732145393942	0
12	166	31.932145393942	0
12	167	31.960865804286	0
12	168	32.160865804286	0
12	169	32.360865804286	0
12	170	32.560865804286	0
12	171	32.760865804286	0
12	172	32.960865804286	0
12	173	33.160865804286	0
12	174	33.360865804286	0
12	175	33.560865804286	0
12	176	33.760865804286	0
12	177	33.960865804286	0