version 3
run CNPF-4-20240912-08:19:27-54225
attr configname CNPF
attr datetime 20240912-08:19:27
attr datetimef 20240912-081927
attr experiment CNPF
attr inifile omnetpp.ini
attr iterationvars $0=10
attr iterationvarsd 10
attr iterationvarsf 10-
attr measurement $0=10
attr network ParcelDeliveryNetwork
attr processid 54225
attr repetition 4
attr replication #4
attr resultdir results
attr runnumber 4
attr seedset 4
config image-path ../inet/images
config network ParcelDeliveryNetwork
config description "1 drones, 30 destinations, 30 parcels, "
config *.numdrones 1
config **.drone*.mobility.typename DroneNetMob
config **.drone[*].mobility.ndst 10
config **.drone[*].mobility.nd 8
config **.drone[*].mobility.npar 30
config **.drone[*].mobility.initFromDisplayString false
config **.drone[*].mobility.changeInterval "truncnormal(2s, 0.5s)"
config **.drone[*].mobility.angleDelta "normal(0deg, 30deg)"
config **.drone[*].mobility.speed 10mps
config **.drone[*].mobility.remainingBattery 480
config **.drone[*].mobility.weightCapacity 100
config **.drone[*].mobility.parcelSelectionMethod 0
config **.drone[*].mobility.initialX 0m
config **.drone[*].mobility.initialY 0m
config **.drone[*].mobility.initialZ 0m
config repeat 10
config sim-time-limit 80second
config **.constraintAreaMinX 0m
config **.constraintAreaMinY 0m
config **.constraintAreaMinZ 0m
config **.constraintAreaMaxX 600m
config **.constraintAreaMaxY 400m
config **.constraintAreaMaxZ 0m
config **.updateInterval 0.2s

vector 0 ParcelDeliveryNetwork.gcs.wlan[0].mac.dcf frameSequenceActive:vector ETV
attr autoWarmupFilter false
attr interpolationmode sample-hold
attr recordingmode vector
attr source warmup(count(frameSequenceStarted)-count(frameSequenceFinished))
attr title "frame sequence active"
vector 1 ParcelDeliveryNetwork.gcs.wlan[0].mac.dcf.channelAccess.pendingQueue queueLength:vector ETV
attr autoWarmupFilter false
attr interpolationmode sample-hold
attr recordingmode vector
attr source "warmup(atomic(constant0(packetPushEnded) + count(packetPushStarted) - count(packetPulled) - count(packetRemoved) - count(packetDropped)))"
attr title "queue length"
attr unit pk
vector 2 ParcelDeliveryNetwork.gcs.wlan[0].mac.dcf.channelAccess.pendingQueue queueBitLength:vector ETV
attr autoWarmupFilter false
attr interpolationmode sample-hold
attr recordingmode vector
attr source "warmup(atomic(constant0(packetPushEnded) + sum(packetLength(packetPushStarted)) - sum(packetLength(packetPulled)) - sum(packetLength(packetRemoved)) - sum(packetLength(packetDropped))))"
attr title "queue bit length"
attr unit b
vector 3 ParcelDeliveryNetwork.gcs.wlan[0].mac.dcf.channelAccess.inProgressFrames queueLength:vector ETV
attr autoWarmupFilter false
attr interpolationmode sample-hold
attr recordingmode vector
attr source "warmup(count(packetEnqueued) - count(packetDequeued))"
attr title "queue length"
vector 4 ParcelDeliveryNetwork.gcs.wlan[0].mac.dcf.channelAccess.contention backoffActive:vector ETV
attr autoWarmupFilter false
attr interpolationmode sample-hold
attr recordingmode vector
attr source warmup(count(backoffStarted)-count(backoffStopped))
attr title "backoff active"
vector 5 ParcelDeliveryNetwork.gcs.udp passedUpPk:vector(count) ETV
attr interpolationmode none
attr recordingmode vector(count)
attr source packetSentToUpper
attr title "packets passed up, count"
vector 6 ParcelDeliveryNetwork.gcs.udp droppedPkWrongPort:vector(count) ETV
attr interpolationmode none
attr recordingmode vector(count)
attr source packetDropReasonIsNoPortFound(packetDropped)
attr title "packets dropped (wrong port), count"
vector 7 ParcelDeliveryNetwork.gcs.udp droppedPkBadChecksum:vector(count) ETV
attr interpolationmode none
attr recordingmode vector(count)
attr source packetDropReasonIsIncorrectlyReceived(packetDropped)
attr title "packets dropped (checksum error), count"
vector 8 ParcelDeliveryNetwork.gcs.wlan[0].radio radioMode:vector ETV
attr interpolationmode sample-hold
attr recordingmode vector
attr source radioModeChanged
attr title "Radio mode"
vector 9 ParcelDeliveryNetwork.gcs.wlan[0].radio radioChannel:vector ETV
attr interpolationmode sample-hold
attr recordingmode vector
attr source radioChannelChanged
attr title "Radio channel"
vector 10 ParcelDeliveryNetwork.drone[0] coordX:vector ETV
attr interpolationmode linear
attr recordingmode vector
attr source xCoord(mobilityPos(mobilityStateChanged))
attr title "coord X"
vector 11 ParcelDeliveryNetwork.drone[0] coordY:vector ETV
attr interpolationmode linear
attr recordingmode vector
attr source yCoord(mobilityPos(mobilityStateChanged))
attr title "coord Y"
vector 12 ParcelDeliveryNetwork.drone[0] coordZ:vector ETV
attr interpolationmode linear
attr recordingmode vector
attr source zCoord(mobilityPos(mobilityStateChanged))
attr title "coord Z"
vector 13 ParcelDeliveryNetwork.gcs.wlan[0].radio receptionState:vector ETV
attr interpolationmode sample-hold
attr recordingmode vector
attr source receptionStateChanged
attr title "Radio reception state"
vector 14 ParcelDeliveryNetwork.gcs.wlan[0].mac.dcf.channelAccess.contention stateChanged:vector ETV
attr enum IDLE,DEFER,IFS_AND_BACKOFF
attr interpolationmode none
attr recordingmode vector
attr title "contention state changed"
attr type enum
vector 15 ParcelDeliveryNetwork.gcs.wlan[0].mac.dcf.recoveryProcedure contentionWindowChanged:vector ETV
attr interpolationmode sample-hold
attr recordingmode vector
attr title "contention window"
0	0	0	0
0	0	0	0
1	0	0	0
1	0	0	0
1	0	0	0
1	0	0	0
1	0	0	0
2	0	0	0
2	0	0	0
2	0	0	0
2	0	0	0
2	0	0	0
3	0	0	0
3	0	0	0
4	0	0	0
4	0	0	0
5	0	0	0
6	0	0	0
7	0	0	0
8	0	0	0
8	0	0	0
8	0	0	2
9	0	0	0
10	0	0	0
10	1	0.2	0
10	2	0.4	0
10	3	0.6	0
10	4	0.8	0
10	5	1	0
10	6	1.2	0
10	7	1.4	0
10	8	1.6	0
10	9	1.8	0
10	10	2	0
10	11	2.2	0
10	12	2.4	0
10	13	2.6	0
10	14	2.8	0
10	15	2.826464772771	0
10	16	3.026464772771	0
10	17	3.226464772771	0
10	18	3.426464772771	0
10	19	3.626464772771	0
10	20	3.826464772771	0
10	21	4.026464772771	0
10	22	4.213147769865	0
10	23	4.413147769865	0
10	24	4.613147769865	0
10	25	4.813147769865	0
10	26	5.013147769865	0
10	27	5.213147769865	0
10	28	5.413147769865	0
10	29	5.580512012532	0
10	30	5.780512012532	0
10	31	5.980512012532	0
10	32	6.180512012532	0
10	33	6.380512012532	0
10	34	6.580512012532	0
10	35	6.780512012532	0
10	36	6.980512012532	0
10	37	7.180512012532	0
10	38	7.380512012532	0
10	39	7.580512012532	0
10	40	7.780512012532	0
10	41	7.800425798705	0
10	42	8.000425798705	0
10	43	8.200425798705	0
10	44	8.400425798705	0
10	45	8.600425798705	0
10	46	8.800425798705	0
10	47	9.000425798705	0
10	48	9.200425798705	0
10	49	9.400425798705	0
10	50	9.600425798705	0
10	51	9.800425798705	0
10	52	10.000425798705	0
10	53	10.018573624905	0
10	54	10.218573624905	0
10	55	10.418573624905	0
10	56	10.618573624905	0
10	57	10.818573624905	0
10	58	11.018573624905	0
10	59	11.218573624905	0
10	60	11.418573624905	0
10	61	11.618573624905	0
10	62	11.818573624905	0
10	63	12.000772552388	0
10	64	12.200772552388	0
10	65	12.400772552388	0
10	66	12.600772552388	0
10	67	12.800772552388	0
10	68	13.000772552388	0
10	69	13.200772552388	0
10	70	13.400772552388	0
10	71	13.600772552388	0
10	72	13.800772552388	0
10	73	14.000772552388	0
10	74	14.200772552388	0
10	75	14.314141847487	0
10	76	14.514141847487	0
10	77	14.714141847487	0
10	78	14.914141847487	0
10	79	15.114141847487	0
10	80	15.314141847487	0
10	81	15.514141847487	0
10	82	15.714141847487	0
10	83	15.914141847487	0
10	84	15.955825841894	0
10	85	16.155825841894	0
10	86	16.355825841894	0
10	87	16.555825841894	0
10	88	16.755825841894	0
10	89	16.955825841894	0
10	90	17.155825841894	0
10	91	17.355825841894	0
10	92	17.555825841894	0
10	93	17.755825841894	0
10	94	17.955825841894	0
10	95	18.155825841894	0
10	96	18.355825841894	0
10	97	18.555825841894	0
10	98	18.755825841894	0
10	99	18.824658174876	0
10	100	19.024658174876	0
10	101	19.224658174876	0
10	102	19.424658174876	0
10	103	19.624658174876	0
10	104	19.824658174876	0
10	105	20.024658174876	0
10	106	20.224658174876	0
10	107	20.424658174876	0
10	108	20.526512667965	0
10	109	20.726512667965	0
10	110	20.926512667965	0
10	111	21.126512667965	0
10	112	21.326512667965	0
10	113	21.526512667965	0
10	114	21.726512667965	0
10	115	21.883854040096	0
10	116	22.083854040096	0
10	117	22.283854040096	0
10	118	22.483854040096	0
10	119	22.683854040096	0
10	120	22.747977402195	0
10	121	22.947977402195	0
10	122	23.147977402195	0
10	123	23.347977402195	0
10	124	23.547977402195	0
10	125	23.747977402195	0
10	126	23.947977402195	0
10	127	24.147977402195	0
10	128	24.347977402195	0
10	129	24.515404747481	0
10	130	24.715404747481	0
10	131	24.915404747481	0
10	132	25.115404747481	0
10	133	25.315404747481	0
10	134	25.515404747481	0
10	135	25.715404747481	0
10	136	25.915404747481	0
10	137	26.115404747481	0
10	138	26.315404747481	0
10	139	26.515404747481	0
10	140	26.715404747481	0
10	141	26.771325330323	0
10	142	26.971325330323	0
10	143	27.171325330323	0
10	144	27.371325330323	0
10	145	27.571325330323	0
10	146	27.771325330323	0
10	147	27.971325330323	0
10	148	28.171325330323	0
10	149	28.371325330323	0
10	150	28.571325330323	0
10	151	28.720247050826	0
10	152	28.920247050826	0
10	153	29.120247050826	0
10	154	29.320247050826	0
10	155	29.520247050826	0
10	156	29.720247050826	0
10	157	29.920247050826	0
10	158	30.120247050826	0
10	159	30.320247050826	0
10	160	30.520247050826	0
10	161	30.66917307021	0
10	162	30.86917307021	0
10	163	31.06917307021	0
10	164	31.26917307021	0
10	165	31.46917307021	0
10	166	31.66917307021	0
10	167	31.86917307021	0
10	168	32.06917307021	0
10	169	32.26917307021	0
10	170	32.46917307021	0
10	171	32.576260939067	0
10	172	32.776260939067	0
10	173	32.976260939067	0
10	174	33.176260939067	0
10	175	33.376260939067	0
10	176	33.576260939067	0
10	177	33.776260939067	0
10	178	33.976260939067	0
10	179	34.176260939067	0
10	180	34.376260939067	0
10	181	34.576260939067	0
10	182	34.776260939067	0
10	183	34.976260939067	0
10	184	35.045173137096	0
10	185	35.245173137096	0
10	186	35.445173137096	0
10	187	35.645173137096	0
10	188	35.845173137096	0
10	189	36.045173137096	0
10	190	36.245173137096	0
10	191	36.445173137096	0
10	192	36.645173137096	0
10	193	36.845173137096	0
10	194	37.045173137096	0
10	195	37.245173137096	0
10	196	37.445173137096	0
10	197	37.576592482825	0
10	198	37.776592482825	0
10	199	37.976592482825	0
10	200	38.176592482825	0
10	201	38.376592482825	0
10	202	38.576592482825	0
10	203	38.776592482825	0
10	204	38.976592482825	0
10	205	39.176592482825	0
10	206	39.376592482825	0
10	207	39.576592482825	0
10	208	39.776592482825	0
10	209	39.976592482825	0
10	210	40.176592482825	0
10	211	40.376592482825	0
10	212	40.576592482825	0
10	213	40.758420350737	0
10	214	40.958420350737	0
10	215	41.158420350737	0
10	216	41.358420350737	0
10	217	41.558420350737	0
10	218	41.758420350737	0
10	219	41.958420350737	0
10	220	42.158420350737	0
10	221	42.358420350737	0
10	222	42.558420350737	0
10	223	42.758420350737	0
10	224	42.958420350737	0
10	225	43.158420350737	0
10	226	43.358420350737	0
10	227	43.558420350737	0
10	228	43.584907113973	0
10	229	43.784907113973	0
10	230	43.984907113973	0
10	231	44.184907113973	0
10	232	44.384907113973	0
10	233	44.584907113973	0
10	234	44.638343637804	0
10	235	44.838343637804	0
10	236	45.038343637804	0
10	237	45.238343637804	0
10	238	45.438343637804	0
10	239	45.638343637804	0
10	240	45.838343637804	0
10	241	46.038343637804	0
10	242	46.238343637804	0
10	243	46.350702239217	0
10	244	46.550702239217	0
10	245	46.750702239217	0
10	246	46.950702239217	0
10	247	47.150702239217	0
10	248	47.350702239217	0
10	249	47.550702239217	0
10	250	47.750702239217	0
10	251	47.950702239217	0
10	252	48.150702239217	0
10	253	48.350702239217	0
10	254	48.531483724051	0
10	255	48.731483724051	0
10	256	48.931483724051	0
10	257	49.131483724051	0
10	258	49.331483724051	0
10	259	49.531483724051	0
10	260	49.731483724051	0
10	261	49.931483724051	0
10	262	50.131483724051	0
10	263	50.331483724051	0
10	264	50.531483724051	0
10	265	50.731483724051	0
10	266	50.835813900796	0
10	267	51.035813900796	0
10	268	51.235813900796	0
10	269	51.435813900796	0
10	270	51.635813900796	0
10	271	51.835813900796	0
10	272	52.035813900796	0
10	273	52.235813900796	0
10	274	52.435813900796	0
10	275	52.635813900796	0
10	276	52.835813900796	0
10	277	53.035813900796	0
10	278	53.037597902531	0
10	279	53.237597902531	0
10	280	53.437597902531	0
10	281	53.637597902531	0
10	282	53.837597902531	0
10	283	54.037597902531	0
10	284	54.237597902531	0
10	285	54.437597902531	0
10	286	54.637597902531	0
10	287	54.837597902531	0
10	288	55.037597902531	0
10	289	55.237597902531	0
10	290	55.437597902531	0
10	291	55.488332546176	0
10	292	55.688332546176	0
10	293	55.888332546176	0
10	294	56.088332546176	0
10	295	56.288332546176	0
10	296	56.488332546176	0
10	297	56.688332546176	0
10	298	56.888332546176	0
10	299	57.088332546176	0
10	300	57.288332546176	0
10	301	57.488332546176	0
10	302	57.688332546176	0
10	303	57.888332546176	0
10	304	57.945060599414	0
10	305	58.145060599414	0
10	306	58.345060599414	0
10	307	58.545060599414	0
10	308	58.745060599414	0
10	309	58.945060599414	0
10	310	59.145060599414	0
10	311	59.345060599414	0
10	312	59.545060599414	0
10	313	59.745060599414	0
10	314	59.945060599414	0
10	315	60.145060599414	0
10	316	60.345060599414	0
10	317	60.365280477372	0
10	318	60.565280477372	0
10	319	60.765280477372	0
10	320	60.965280477372	0
10	321	61.165280477372	0
10	322	61.365280477372	0
10	323	61.565280477372	0
10	324	61.765280477372	0
10	325	61.965280477372	0
10	326	62.165280477372	0
10	327	62.365280477372	0
10	328	62.565280477372	0
10	329	62.765280477372	0
10	330	62.965280477372	0
10	331	62.966388981886	0
10	332	63.166388981886	0
10	333	63.366388981886	0
10	334	63.566388981886	0
10	335	63.766388981886	0
10	336	63.966388981886	0
10	337	64.166388981886	0
10	338	64.366388981886	0
10	339	64.566388981886	0
10	340	64.766388981886	0
10	341	64.924558448952	0
10	342	65.124558448952	0
10	343	65.324558448952	0
10	344	65.524558448952	0
10	345	65.724558448952	0
10	346	65.924558448952	0
10	347	66.124558448952	0
10	348	66.324558448952	0
10	349	66.524558448952	0
10	350	66.724558448952	0
10	351	66.924558448952	0
10	352	67.124558448952	0
10	353	67.157820565943	0
10	354	67.357820565943	0
10	355	67.557820565943	0
10	356	67.757820565943	0
10	357	67.957820565943	0
10	358	68.157820565943	0
10	359	68.357820565943	0
10	360	68.557820565943	0
10	361	68.757820565943	0
10	362	68.957820565943	0
10	363	69.157820565943	0
10	364	69.196863549466	0
10	365	69.396863549466	0
10	366	69.596863549466	0
10	367	69.796863549466	0
10	368	69.996863549466	0
10	369	70.196863549466	0
10	370	70.396863549466	0
10	371	70.596863549466	0
10	372	70.796863549466	0
10	373	70.996863549466	0
10	374	71.196863549466	0
10	375	71.348441459685	0
10	376	71.548441459685	0
10	377	71.748441459685	0
10	378	71.948441459685	0
10	379	72.148441459685	0
10	380	72.348441459685	0
10	381	72.548441459685	0
10	382	72.748441459685	0
10	383	72.948441459685	0
10	384	73.148441459685	0
10	385	73.348441459685	0
10	386	73.548441459685	0
10	387	73.605489998204	0
10	388	73.805489998204	0
10	389	74.005489998204	0
10	390	74.205489998204	0
10	391	74.405489998204	0
10	392	74.605489998204	0
10	393	74.805489998204	0
10	394	75.005489998204	0
10	395	75.205489998204	0
10	396	75.317982352962	0
10	397	75.517982352962	0
10	398	75.717982352962	0
10	399	75.917982352962	0
10	400	76.117982352962	0
10	401	76.317982352962	0
10	402	76.517982352962	0
10	403	76.717982352962	0
10	404	76.917982352962	0
10	405	77.117982352962	0
10	406	77.317982352962	0
10	407	77.34649290043	0
10	408	77.54649290043	0
10	409	77.74649290043	0
10	410	77.94649290043	0
10	411	78.14649290043	0
10	412	78.34649290043	0
10	413	78.54649290043	0
10	414	78.74649290043	0
10	415	78.833140338597	0
10	416	79.033140338597	0
10	417	79.233140338597	0
10	418	79.433140338597	0
10	419	79.633140338597	0
10	420	79.833140338597	0
11	0	0	0
11	1	0.2	0
11	2	0.4	0
11	3	0.6	0
11	4	0.8	0
11	5	1	0
11	6	1.2	0
11	7	1.4	0
11	8	1.6	0
11	9	1.8	0
11	10	2	0
11	11	2.2	0
11	12	2.4	0
11	13	2.6	0
11	14	2.8	0
11	15	2.826464772771	0
11	16	3.026464772771	0
11	17	3.226464772771	0
11	18	3.426464772771	0
11	19	3.626464772771	0
11	20	3.826464772771	0
11	21	4.026464772771	0
11	22	4.213147769865	0
11	23	4.413147769865	0
11	24	4.613147769865	0
11	25	4.813147769865	0
11	26	5.013147769865	0
11	27	5.213147769865	0
11	28	5.413147769865	0
11	29	5.580512012532	0
11	30	5.780512012532	0
11	31	5.980512012532	0
11	32	6.180512012532	0
11	33	6.380512012532	0
11	34	6.580512012532	0
11	35	6.780512012532	0
11	36	6.980512012532	0
11	37	7.180512012532	0
11	38	7.380512012532	0
11	39	7.580512012532	0
11	40	7.780512012532	0
11	41	7.800425798705	0
11	42	8.000425798705	0
11	43	8.200425798705	0
11	44	8.400425798705	0
11	45	8.600425798705	0
11	46	8.800425798705	0
11	47	9.000425798705	0
11	48	9.200425798705	0
11	49	9.400425798705	0
11	50	9.600425798705	0
11	51	9.800425798705	0
11	52	10.000425798705	0
11	53	10.018573624905	0
11	54	10.218573624905	0
11	55	10.418573624905	0
11	56	10.618573624905	0
11	57	10.818573624905	0
11	58	11.018573624905	0
11	59	11.218573624905	0
11	60	11.418573624905	0
11	61	11.618573624905	0
11	62	11.818573624905	0
11	63	12.000772552388	0
11	64	12.200772552388	0
11	65	12.400772552388	0
11	66	12.600772552388	0
11	67	12.800772552388	0
11	68	13.000772552388	0
11	69	13.200772552388	0
11	70	13.400772552388	0
11	71	13.600772552388	0
11	72	13.800772552388	0
11	73	14.000772552388	0
11	74	14.200772552388	0
11	75	14.314141847487	0
11	76	14.514141847487	0
11	77	14.714141847487	0
11	78	14.914141847487	0
11	79	15.114141847487	0
11	80	15.314141847487	0
11	81	15.514141847487	0
11	82	15.714141847487	0
11	83	15.914141847487	0
11	84	15.955825841894	0
11	85	16.155825841894	0
11	86	16.355825841894	0
11	87	16.555825841894	0
11	88	16.755825841894	0
11	89	16.955825841894	0
11	90	17.155825841894	0
11	91	17.355825841894	0
11	92	17.555825841894	0
11	93	17.755825841894	0
11	94	17.955825841894	0
11	95	18.155825841894	0
11	96	18.355825841894	0
11	97	18.555825841894	0
11	98	18.755825841894	0
11	99	18.824658174876	0
11	100	19.024658174876	0
11	101	19.224658174876	0
11	102	19.424658174876	0
11	103	19.624658174876	0
11	104	19.824658174876	0
11	105	20.024658174876	0
11	106	20.224658174876	0
11	107	20.424658174876	0
11	108	20.526512667965	0
11	109	20.726512667965	0
11	110	20.926512667965	0
11	111	21.126512667965	0
11	112	21.326512667965	0
11	113	21.526512667965	0
11	114	21.726512667965	0
11	115	21.883854040096	0
11	116	22.083854040096	0
11	117	22.283854040096	0
11	118	22.483854040096	0
11	119	22.683854040096	0
11	120	22.747977402195	0
11	121	22.947977402195	0
11	122	23.147977402195	0
11	123	23.347977402195	0
11	124	23.547977402195	0
11	125	23.747977402195	0
11	126	23.947977402195	0
11	127	24.147977402195	0
11	128	24.347977402195	0
11	129	24.515404747481	0
11	130	24.715404747481	0
11	131	24.915404747481	0
11	132	25.115404747481	0
11	133	25.315404747481	0
11	134	25.515404747481	0
11	135	25.715404747481	0
11	136	25.915404747481	0
11	137	26.115404747481	0
11	138	26.315404747481	0
11	139	26.515404747481	0
11	140	26.715404747481	0
11	141	26.771325330323	0
11	142	26.971325330323	0
11	143	27.171325330323	0
11	144	27.371325330323	0
11	145	27.571325330323	0
11	146	27.771325330323	0
11	147	27.971325330323	0
11	148	28.171325330323	0
11	149	28.371325330323	0
11	150	28.571325330323	0
11	151	28.720247050826	0
11	152	28.920247050826	0
11	153	29.120247050826	0
11	154	29.320247050826	0
11	155	29.520247050826	0
11	156	29.720247050826	0
11	157	29.920247050826	0
11	158	30.120247050826	0
11	159	30.320247050826	0
11	160	30.520247050826	0
11	161	30.66917307021	0
11	162	30.86917307021	0
11	163	31.06917307021	0
11	164	31.26917307021	0
11	165	31.46917307021	0
11	166	31.66917307021	0
11	167	31.86917307021	0
11	168	32.06917307021	0
11	169	32.26917307021	0
11	170	32.46917307021	0
11	171	32.576260939067	0
11	172	32.776260939067	0
11	173	32.976260939067	0
11	174	33.176260939067	0
11	175	33.376260939067	0
11	176	33.576260939067	0
11	177	33.776260939067	0
11	178	33.976260939067	0
11	179	34.176260939067	0
11	180	34.376260939067	0
11	181	34.576260939067	0
11	182	34.776260939067	0
11	183	34.976260939067	0
11	184	35.045173137096	0
11	185	35.245173137096	0
11	186	35.445173137096	0
11	187	35.645173137096	0
11	188	35.845173137096	0
11	189	36.045173137096	0
11	190	36.245173137096	0
11	191	36.445173137096	0
11	192	36.645173137096	0
11	193	36.845173137096	0
11	194	37.045173137096	0
11	195	37.245173137096	0
11	196	37.445173137096	0
11	197	37.576592482825	0
11	198	37.776592482825	0
11	199	37.976592482825	0
11	200	38.176592482825	0
11	201	38.376592482825	0
11	202	38.576592482825	0
11	203	38.776592482825	0
11	204	38.976592482825	0
11	205	39.176592482825	0
11	206	39.376592482825	0
11	207	39.576592482825	0
11	208	39.776592482825	0
11	209	39.976592482825	0
11	210	40.176592482825	0
11	211	40.376592482825	0
11	212	40.576592482825	0
11	213	40.758420350737	0
11	214	40.958420350737	0
11	215	41.158420350737	0
11	216	41.358420350737	0
11	217	41.558420350737	0
11	218	41.758420350737	0
11	219	41.958420350737	0
11	220	42.158420350737	0
11	221	42.358420350737	0
11	222	42.558420350737	0
11	223	42.758420350737	0
11	224	42.958420350737	0
11	225	43.158420350737	0
11	226	43.358420350737	0
11	227	43.558420350737	0
11	228	43.584907113973	0
11	229	43.784907113973	0
11	230	43.984907113973	0
11	231	44.184907113973	0
11	232	44.384907113973	0
11	233	44.584907113973	0
11	234	44.638343637804	0
11	235	44.838343637804	0
11	236	45.038343637804	0
11	237	45.238343637804	0
11	238	45.438343637804	0
11	239	45.638343637804	0
11	240	45.838343637804	0
11	241	46.038343637804	0
11	242	46.238343637804	0
11	243	46.350702239217	0
11	244	46.550702239217	0
11	245	46.750702239217	0
11	246	46.950702239217	0
11	247	47.150702239217	0
11	248	47.350702239217	0
11	249	47.550702239217	0
11	250	47.750702239217	0
11	251	47.950702239217	0
11	252	48.150702239217	0
11	253	48.350702239217	0
11	254	48.531483724051	0
11	255	48.731483724051	0
11	256	48.931483724051	0
11	257	49.131483724051	0
11	258	49.331483724051	0
11	259	49.531483724051	0
11	260	49.731483724051	0
11	261	49.931483724051	0
11	262	50.131483724051	0
11	263	50.331483724051	0
11	264	50.531483724051	0
11	265	50.731483724051	0
11	266	50.835813900796	0
11	267	51.035813900796	0
11	268	51.235813900796	0
11	269	51.435813900796	0
11	270	51.635813900796	0
11	271	51.835813900796	0
11	272	52.035813900796	0
11	273	52.235813900796	0
11	274	52.435813900796	0
11	275	52.635813900796	0
11	276	52.835813900796	0
11	277	53.035813900796	0
11	278	53.037597902531	0
11	279	53.237597902531	0
11	280	53.437597902531	0
11	281	53.637597902531	0
11	282	53.837597902531	0
11	283	54.037597902531	0
11	284	54.237597902531	0
11	285	54.437597902531	0
11	286	54.637597902531	0
11	287	54.837597902531	0
11	288	55.037597902531	0
11	289	55.237597902531	0
11	290	55.437597902531	0
11	291	55.488332546176	0
11	292	55.688332546176	0
11	293	55.888332546176	0
11	294	56.088332546176	0
11	295	56.288332546176	0
11	296	56.488332546176	0
11	297	56.688332546176	0
11	298	56.888332546176	0
11	299	57.088332546176	0
11	300	57.288332546176	0
11	301	57.488332546176	0
11	302	57.688332546176	0
11	303	57.888332546176	0
11	304	57.945060599414	0
11	305	58.145060599414	0
11	306	58.345060599414	0
11	307	58.545060599414	0
11	308	58.745060599414	0
11	309	58.945060599414	0
11	310	59.145060599414	0
11	311	59.345060599414	0
11	312	59.545060599414	0
11	313	59.745060599414	0
11	314	59.945060599414	0
11	315	60.145060599414	0
11	316	60.345060599414	0
11	317	60.365280477372	0
11	318	60.565280477372	0
11	319	60.765280477372	0
11	320	60.965280477372	0
11	321	61.165280477372	0
11	322	61.365280477372	0
11	323	61.565280477372	0
11	324	61.765280477372	0
11	325	61.965280477372	0
11	326	62.165280477372	0
11	327	62.365280477372	0
11	328	62.565280477372	0
11	329	62.765280477372	0
11	330	62.965280477372	0
11	331	62.966388981886	0
11	332	63.166388981886	0
11	333	63.366388981886	0
11	334	63.566388981886	0
11	335	63.766388981886	0
11	336	63.966388981886	0
11	337	64.166388981886	0
11	338	64.366388981886	0
11	339	64.566388981886	0
11	340	64.766388981886	0
11	341	64.924558448952	0
11	342	65.124558448952	0
11	343	65.324558448952	0
11	344	65.524558448952	0
11	345	65.724558448952	0
11	346	65.924558448952	0
11	347	66.124558448952	0
11	348	66.324558448952	0
11	349	66.524558448952	0
11	350	66.724558448952	0
11	351	66.924558448952	0
11	352	67.124558448952	0
11	353	67.157820565943	0
11	354	67.357820565943	0
11	355	67.557820565943	0
11	356	67.757820565943	0
11	357	67.957820565943	0
11	358	68.157820565943	0
11	359	68.357820565943	0
11	360	68.557820565943	0
11	361	68.757820565943	0
11	362	68.957820565943	0
11	363	69.157820565943	0
11	364	69.196863549466	0
11	365	69.396863549466	0
11	366	69.596863549466	0
11	367	69.796863549466	0
11	368	69.996863549466	0
11	369	70.196863549466	0
11	370	70.396863549466	0
11	371	70.596863549466	0
11	372	70.796863549466	0
11	373	70.996863549466	0
11	374	71.196863549466	0
11	375	71.348441459685	0
11	376	71.548441459685	0
11	377	71.748441459685	0
11	378	71.948441459685	0
11	379	72.148441459685	0
11	380	72.348441459685	0
11	381	72.548441459685	0
11	382	72.748441459685	0
11	383	72.948441459685	0
11	384	73.148441459685	0
11	385	73.348441459685	0
11	386	73.548441459685	0
11	387	73.605489998204	0
11	388	73.805489998204	0
11	389	74.005489998204	0
11	390	74.205489998204	0
11	391	74.405489998204	0
11	392	74.605489998204	0
11	393	74.805489998204	0
11	394	75.005489998204	0
11	395	75.205489998204	0
11	396	75.317982352962	0
11	397	75.517982352962	0
11	398	75.717982352962	0
11	399	75.917982352962	0
11	400	76.117982352962	0
11	401	76.317982352962	0
11	402	76.517982352962	0
11	403	76.717982352962	0
11	404	76.917982352962	0
11	405	77.117982352962	0
11	406	77.317982352962	0
11	407	77.34649290043	0
11	408	77.54649290043	0
11	409	77.74649290043	0
11	410	77.94649290043	0
11	411	78.14649290043	0
11	412	78.34649290043	0
11	413	78.54649290043	0
11	414	78.74649290043	0
11	415	78.833140338597	0
11	416	79.033140338597	0
11	417	79.233140338597	0
11	418	79.433140338597	0
11	419	79.633140338597	0
11	420	79.833140338597	0
12	0	0	0
12	1	0.2	0
12	2	0.4	0
12	3	0.6	0
12	4	0.8	0
12	5	1	0
12	6	1.2	0
12	7	1.4	0
12	8	1.6	0
12	9	1.8	0
12	10	2	0
12	11	2.2	0
12	12	2.4	0
12	13	2.6	0
12	14	2.8	0
12	15	2.826464772771	0
12	16	3.026464772771	0
12	17	3.226464772771	0
12	18	3.426464772771	0
12	19	3.626464772771	0
12	20	3.826464772771	0
12	21	4.026464772771	0
12	22	4.213147769865	0
12	23	4.413147769865	0
12	24	4.613147769865	0
12	25	4.813147769865	0
12	26	5.013147769865	0
12	27	5.213147769865	0
12	28	5.413147769865	0
12	29	5.580512012532	0
12	30	5.780512012532	0
12	31	5.980512012532	0
12	32	6.180512012532	0
12	33	6.380512012532	0
12	34	6.580512012532	0
12	35	6.780512012532	0
12	36	6.980512012532	0
12	37	7.180512012532	0
12	38	7.380512012532	0
12	39	7.580512012532	0
12	40	7.780512012532	0
12	41	7.800425798705	0
12	42	8.000425798705	0
12	43	8.200425798705	0
12	44	8.400425798705	0
12	45	8.600425798705	0
12	46	8.800425798705	0
12	47	9.000425798705	0
12	48	9.200425798705	0
12	49	9.400425798705	0
12	50	9.600425798705	0
12	51	9.800425798705	0
12	52	10.000425798705	0
12	53	10.018573624905	0
12	54	10.218573624905	0
12	55	10.418573624905	0
12	56	10.618573624905	0
12	57	10.818573624905	0
12	58	11.018573624905	0
12	59	11.218573624905	0
12	60	11.418573624905	0
12	61	11.618573624905	0
12	62	11.818573624905	0
12	63	12.000772552388	0
12	64	12.200772552388	0
12	65	12.400772552388	0
12	66	12.600772552388	0
12	67	12.800772552388	0
12	68	13.000772552388	0
12	69	13.200772552388	0
12	70	13.400772552388	0
12	71	13.600772552388	0
12	72	13.800772552388	0
12	73	14.000772552388	0
12	74	14.200772552388	0
12	75	14.314141847487	0
12	76	14.514141847487	0
12	77	14.714141847487	0
12	78	14.914141847487	0
12	79	15.114141847487	0
12	80	15.314141847487	0
12	81	15.514141847487	0
12	82	15.714141847487	0
12	83	15.914141847487	0
12	84	15.955825841894	0
12	85	16.155825841894	0
12	86	16.355825841894	0
12	87	16.555825841894	0
12	88	16.755825841894	0
12	89	16.955825841894	0
12	90	17.155825841894	0
12	91	17.355825841894	0
12	92	17.555825841894	0
12	93	17.755825841894	0
12	94	17.955825841894	0
12	95	18.155825841894	0
12	96	18.355825841894	0
12	97	18.555825841894	0
12	98	18.755825841894	0
12	99	18.824658174876	0
12	100	19.024658174876	0
12	101	19.224658174876	0
12	102	19.424658174876	0
12	103	19.624658174876	0
12	104	19.824658174876	0
12	105	20.024658174876	0
12	106	20.224658174876	0
12	107	20.424658174876	0
12	108	20.526512667965	0
12	109	20.726512667965	0
12	110	20.926512667965	0
12	111	21.126512667965	0
12	112	21.326512667965	0
12	113	21.526512667965	0
12	114	21.726512667965	0
12	115	21.883854040096	0
12	116	22.083854040096	0
12	117	22.283854040096	0
12	118	22.483854040096	0
12	119	22.683854040096	0
12	120	22.747977402195	0
12	121	22.947977402195	0
12	122	23.147977402195	0
12	123	23.347977402195	0
12	124	23.547977402195	0
12	125	23.747977402195	0
12	126	23.947977402195	0
12	127	24.147977402195	0
12	128	24.347977402195	0
12	129	24.515404747481	0
12	130	24.715404747481	0
12	131	24.915404747481	0
12	132	25.115404747481	0
12	133	25.315404747481	0
12	134	25.515404747481	0
12	135	25.715404747481	0
12	136	25.915404747481	0
12	137	26.115404747481	0
12	138	26.315404747481	0
12	139	26.515404747481	0
12	140	26.715404747481	0
12	141	26.771325330323	0
12	142	26.971325330323	0
12	143	27.171325330323	0
12	144	27.371325330323	0
12	145	27.571325330323	0
12	146	27.771325330323	0
12	147	27.971325330323	0
12	148	28.171325330323	0
12	149	28.371325330323	0
12	150	28.571325330323	0
12	151	28.720247050826	0
12	152	28.920247050826	0
12	153	29.120247050826	0
12	154	29.320247050826	0
12	155	29.520247050826	0
12	156	29.720247050826	0
12	157	29.920247050826	0
12	158	30.120247050826	0
12	159	30.320247050826	0
12	160	30.520247050826	0
12	161	30.66917307021	0
12	162	30.86917307021	0
12	163	31.06917307021	0
12	164	31.26917307021	0
12	165	31.46917307021	0
12	166	31.66917307021	0
12	167	31.86917307021	0
12	168	32.06917307021	0
12	169	32.26917307021	0
12	170	32.46917307021	0
12	171	32.576260939067	0
12	172	32.776260939067	0
12	173	32.976260939067	0