version 3
run CNPF-20-20240912-08:19:27-54225
attr configname CNPF
attr datetime 20240912-08:19:27
attr datetimef 20240912-081927
attr experiment CNPF
attr inifile omnetpp.ini
attr iterationvars $0=25
attr iterationvarsd 25
attr iterationvarsf 25-
attr measurement $0=25
attr network ParcelDeliveryNetwork
attr processid 54225
attr repetition 0
attr replication #0
attr resultdir results
attr runnumber 20
attr seedset 20
config image-path ../inet/images
config network ParcelDeliveryNetwork
config description "1 drones, 30 destinations, 30 parcels, "
config *.numdrones 1
config **.drone*.mobility.typename DroneNetMob
config **.drone[*].mobility.ndst 25
config **.drone[*].mobility.nd 8
config **.drone[*].mobility.npar 30
config **.drone[*].mobility.initFromDisplayString false
config **.drone[*].mobility.changeInterval "truncnormal(2s, 0.5s)"
config **.drone[*].mobility.angleDelta "normal(0deg, 30deg)"
config **.drone[*].mobility.speed 10mps
config **.drone[*].mobility.remainingBattery 480
config **.drone[*].mobility.weightCapacity 100
config **.drone[*].mobility.parcelSelectionMethod 0
config **.drone[*].mobility.initialX 0m
config **.drone[*].mobility.initialY 0m
config **.drone[*].mobility.initialZ 0m
config repeat 10
config sim-time-limit 80second
config **.constraintAreaMinX 0m
config **.constraintAreaMinY 0m
config **.constraintAreaMinZ 0m
config **.constraintAreaMaxX 600m
config **.constraintAreaMaxY 400m
config **.constraintAreaMaxZ 0m
config **.updateInterval 0.2s

vector 0 ParcelDeliveryNetwork.gcs.wlan[0].mac.dcf frameSequenceActive:vector ETV
attr autoWarmupFilter false
attr interpolationmode sample-hold
attr recordingmode vector
attr source warmup(count(frameSequenceStarted)-count(frameSequenceFinished))
attr title "frame sequence active"
vector 1 ParcelDeliveryNetwork.gcs.wlan[0].mac.dcf.channelAccess.pendingQueue queueLength:vector ETV
attr autoWarmupFilter false
attr interpolationmode sample-hold
attr recordingmode vector
attr source "warmup(atomic(constant0(packetPushEnded) + count(packetPushStarted) - count(packetPulled) - count(packetRemoved) - count(packetDropped)))"
attr title "queue length"
attr unit pk
vector 2 ParcelDeliveryNetwork.gcs.wlan[0].mac.dcf.channelAccess.pendingQueue queueBitLength:vector ETV
attr autoWarmupFilter false
attr interpolationmode sample-hold
attr recordingmode vector
attr source "warmup(atomic(constant0(packetPushEnded) + sum(packetLength(packetPushStarted)) - sum(packetLength(packetPulled)) - sum(packetLength(packetRemoved)) - sum(packetLength(packetDropped))))"
attr title "queue bit length"
attr unit b
vector 3 ParcelDeliveryNetwork.gcs.wlan[0].mac.dcf.channelAccess.inProgressFrames queueLength:vector ETV
attr autoWarmupFilter false
attr interpolationmode sample-hold
attr recordingmode vector
attr source "warmup(count(packetEnqueued) - count(packetDequeued))"
attr title "queue length"
vector 4 ParcelDeliveryNetwork.gcs.wlan[0].mac.dcf.channelAccess.contention backoffActive:vector ETV
attr autoWarmupFilter false
attr interpolationmode sample-hold
attr recordingmode vector
attr source warmup(count(backoffStarted)-count(backoffStopped))
attr title "backoff active"
vector 5 ParcelDeliveryNetwork.gcs.udp passedUpPk:vector(count) ETV
attr interpolationmode none
attr recordingmode vector(count)
attr source packetSentToUpper
attr title "packets passed up, count"
vector 6 ParcelDeliveryNetwork.gcs.udp droppedPkWrongPort:vector(count) ETV
attr interpolationmode none
attr recordingmode vector(count)
attr source packetDropReasonIsNoPortFound(packetDropped)
attr title "packets dropped (wrong port), count"
vector 7 ParcelDeliveryNetwork.gcs.udp droppedPkBadChecksum:vector(count) ETV
attr interpolationmode none
attr recordingmode vector(count)
attr source packetDropReasonIsIncorrectlyReceived(packetDropped)
attr title "packets dropped (checksum error), count"
vector 8 ParcelDeliveryNetwork.gcs.wlan[0].radio radioMode:vector ETV
attr interpolationmode sample-hold
attr recordingmode vector
attr source radioModeChanged
attr title "Radio mode"
vector 9 ParcelDeliveryNetwork.gcs.wlan[0].radio radioChannel:vector ETV
attr interpolationmode sample-hold
attr recordingmode vector
attr source radioChannelChanged
attr title "Radio channel"
vector 10 ParcelDeliveryNetwork.drone[0] coordX:vector ETV
attr interpolationmode linear
attr recordingmode vector
attr source xCoord(mobilityPos(mobilityStateChanged))
attr title "coord X"
vector 11 ParcelDeliveryNetwork.drone[0] coordY:vector ETV
attr interpolationmode linear
attr recordingmode vector
attr source yCoord(mobilityPos(mobilityStateChanged))
attr title "coord Y"
vector 12 ParcelDeliveryNetwork.drone[0] coordZ:vector ETV
attr interpolationmode linear
attr recordingmode vector
attr source zCoord(mobilityPos(mobilityStateChanged))
attr title "coord Z"
vector 13 ParcelDeliveryNetwork.gcs.wlan[0].radio receptionState:vector ETV
attr interpolationmode sample-hold
attr recordingmode vector
attr source receptionStateChanged
attr title "Radio reception state"
vector 14 ParcelDeliveryNetwork.gcs.wlan[0].mac.dcf.channelAccess.contention stateChanged:vector ETV
attr enum IDLE,DEFER,IFS_AND_BACKOFF
attr interpolationmode none
attr recordingmode vector
attr title "contention state changed"
attr type enum
vector 15 ParcelDeliveryNetwork.gcs.wlan[0].mac.dcf.recoveryProcedure contentionWindowChanged:vector ETV
attr interpolationmode sample-hold
attr recordingmode vector
attr title "contention window"
0	0	0	0
0	0	0	0
1	0	0	0
1	0	0	0
1	0	0	0
1	0	0	0
1	0	0	0
2	0	0	0
2	0	0	0
2	0	0	0
2	0	0	0
2	0	0	0
3	0	0	0
3	0	0	0
4	0	0	0
4	0	0	0
5	0	0	0
6	0	0	0
7	0	0	0
8	0	0	0
8	0	0	0
8	0	0	2
9	0	0	0
10	0	0	0
10	1	0.2	0
10	2	0.4	0
10	3	0.6	0
10	4	0.8	0
10	5	1	0
10	6	1.2	0
10	7	1.4	0
10	8	1.6	0
10	9	1.8	0
10	10	2	0
10	11	2.2	0
10	12	2.4	0
10	13	2.6	0
10	14	2.8	0
10	15	3	0
10	16	3.006849263244	0
10	17	3.206849263244	0
10	18	3.406849263244	0
10	19	3.606849263244	0
10	20	3.806849263244	0
10	21	4.006849263244	0
10	22	4.206849263244	0
10	23	4.342288583592	0
10	24	4.542288583592	0
10	25	4.742288583592	0
10	26	4.942288583592	0
10	27	5.142288583592	0
10	28	5.342288583592	0
10	29	5.542288583592	0
10	30	5.742288583592	0
10	31	5.942288583592	0
10	32	6.142288583592	0
10	33	6.256351929486	0
10	34	6.456351929486	0
10	35	6.656351929486	0
10	36	6.856351929486	0
10	37	7.056351929486	0
10	38	7.256351929486	0
10	39	7.456351929486	0
10	40	7.656351929486	0
10	41	7.856351929486	0
10	42	8.056351929486	0
10	43	8.256351929486	0
10	44	8.456351929486	0
10	45	8.656351929486	0
10	46	8.856351929486	0
10	47	8.986572140708	0
10	48	9.186572140708	0
10	49	9.386572140708	0
10	50	9.586572140708	0
10	51	9.786572140708	0
10	52	9.986572140708	0
10	53	10.186572140708	0
10	54	10.386572140708	0
10	55	10.586572140708	0
10	56	10.7593039576	0
10	57	10.9593039576	0
10	58	11.1593039576	0
10	59	11.3593039576	0
10	60	11.5593039576	0
10	61	11.7593039576	0
10	62	11.9593039576	0
10	63	12.1593039576	0
10	64	12.3593039576	0
10	65	12.5593039576	0
10	66	12.7593039576	0
10	67	12.9593039576	0
10	68	13.1593039576	0
10	69	13.343700792773	0
10	70	13.543700792773	0
10	71	13.743700792773	0
10	72	13.943700792773	0
10	73	14.143700792773	0
10	74	14.343700792773	0
10	75	14.543700792773	0
10	76	14.743700792773	0
10	77	14.943700792773	0
10	78	15.143700792773	0
10	79	15.343700792773	0
10	80	15.543700792773	0
10	81	15.7422341158	0
10	82	15.9422341158	0
10	83	16.1422341158	0
10	84	16.3422341158	0
10	85	16.5422341158	0
10	86	16.7422341158	0
10	87	16.9422341158	0
10	88	17.1422341158	0
10	89	17.3422341158	0
10	90	17.5422341158	0
10	91	17.7422341158	0
10	92	17.875530447415	0
10	93	18.075530447415	0
10	94	18.275530447415	0
10	95	18.475530447415	0
10	96	18.675530447415	0
10	97	18.875530447415	0
10	98	19.075530447415	0
10	99	19.275530447415	0
10	100	19.475530447415	0
10	101	19.675530447415	0
10	102	19.875530447415	0
10	103	19.956405356341	0
10	104	20.156405356341	0
10	105	20.356405356341	0
10	106	20.556405356341	0
10	107	20.756405356341	0
10	108	20.956405356341	0
10	109	21.156405356341	0
10	110	21.356405356341	0
10	111	21.556405356341	0
10	112	21.756405356341	0
10	113	21.882804094249	0
10	114	22.082804094249	0
10	115	22.282804094249	0
10	116	22.482804094249	0
10	117	22.682804094249	0
10	118	22.882804094249	0
10	119	23.017575818356	0
10	120	23.217575818356	0
10	121	23.417575818356	0
10	122	23.617575818356	0
10	123	23.817575818356	0
10	124	24.017575818356	0
10	125	24.217575818356	0
10	126	24.417575818356	0
10	127	24.617575818356	0
10	128	24.817575818356	0
10	129	25.017575818356	0
10	130	25.217575818356	0
10	131	25.417575818356	0
10	132	25.617575818356	0
10	133	25.667528966843	0
10	134	25.867528966843	0
10	135	26.067528966843	0
10	136	26.267528966843	0
10	137	26.467528966843	0
10	138	26.667528966843	0
10	139	26.867528966843	0
10	140	27.067528966843	0
10	141	27.267528966843	0
10	142	27.32181205167	0
10	143	27.52181205167	0
10	144	27.72181205167	0
10	145	27.92181205167	0
10	146	28.12181205167	0
10	147	28.32181205167	0
10	148	28.52181205167	0
10	149	28.72181205167	0
10	150	28.92181205167	0
10	151	29.12181205167	0
10	152	29.32181205167	0
10	153	29.435578136165	0
10	154	29.635578136165	0
10	155	29.835578136165	0
10	156	30.035578136165	0
10	157	30.235578136165	0
10	158	30.435578136165	0
10	159	30.635578136165	0
10	160	30.835578136165	0
10	161	31.035578136165	0
10	162	31.235578136165	0
10	163	31.435578136165	0
10	164	31.635578136165	0
10	165	31.684650502377	0
10	166	31.884650502377	0
10	167	32.084650502377	0
10	168	32.284650502377	0
10	169	32.484650502377	0
10	170	32.684650502377	0
10	171	32.884650502377	0
10	172	32.942635370771	0
10	173	33.142635370771	0
10	174	33.342635370771	0
10	175	33.542635370771	0
10	176	33.742635370771	0
10	177	33.942635370771	0
10	178	34.142635370771	0
10	179	34.342635370771	0
10	180	34.542635370771	0
10	181	34.577626381392	0
10	182	34.777626381392	0
10	183	34.977626381392	0
10	184	35.177626381392	0
10	185	35.377626381392	0
10	186	35.577626381392	0
10	187	35.777626381392	0
10	188	35.977626381392	0
10	189	36.177626381392	0
10	190	36.377626381392	0
10	191	36.524664506777	0
10	192	36.724664506777	0
10	193	36.924664506777	0
10	194	37.124664506777	0
10	195	37.324664506777	0
10	196	37.524664506777	0
10	197	37.724664506777	0
10	198	37.924664506777	0
10	199	38.124664506777	0
10	200	38.324664506777	0
10	201	38.4107908185	0
10	202	38.6107908185	0
10	203	38.8107908185	0
10	204	39.0107908185	0
10	205	39.2107908185	0
10	206	39.4107908185	0
10	207	39.6107908185	0
10	208	39.8107908185	0
10	209	40.0107908185	0
10	210	40.2107908185	0
10	211	40.4107908185	0
10	212	40.6107908185	0
10	213	40.8107908185	0
10	214	41.0107908185	0
10	215	41.2107908185	0
10	216	41.4107908185	0
10	217	41.6107908185	0
10	218	41.629757033514	0
10	219	41.829757033514	0
10	220	42.029757033514	0
10	221	42.229757033514	0
10	222	42.429757033514	0
10	223	42.629757033514	0
10	224	42.829757033514	0
10	225	43.029757033514	0
10	226	43.229757033514	0
10	227	43.429757033514	0
10	228	43.629757033514	0
10	229	43.829757033514	0
10	230	44.029757033514	0
10	231	44.210341461858	0
10	232	44.410341461858	0
10	233	44.610341461858	0
10	234	44.810341461858	0
10	235	45.010341461858	0
10	236	45.210341461858	0
10	237	45.410341461858	0
10	238	45.610341461858	0
10	239	45.810341461858	0
10	240	46.010341461858	0
10	241	46.210341461858	0
10	242	46.335113817588	0
10	243	46.535113817588	0
10	244	46.735113817588	0
10	245	46.935113817588	0
10	246	47.135113817588	0
10	247	47.335113817588	0
10	248	47.513995707448	0
10	249	47.713995707448	0
10	250	47.913995707448	0
10	251	48.113995707448	0
10	252	48.313995707448	0
10	253	48.513995707448	0
10	254	48.713995707448	0
10	255	48.913995707448	0
10	256	48.963326435317	0
10	257	49.163326435317	0
10	258	49.363326435317	0
10	259	49.563326435317	0
10	260	49.763326435317	0
10	261	49.963326435317	0
10	262	50.163326435317	0
10	263	50.363326435317	0
10	264	50.563326435317	0
10	265	50.763326435317	0
10	266	50.950129223613	0
10	267	51.150129223613	0
10	268	51.350129223613	0
10	269	51.550129223613	0
10	270	51.750129223613	0
10	271	51.950129223613	0
10	272	52.150129223613	0
10	273	52.350129223613	0
10	274	52.550129223613	0
10	275	52.750129223613	0
10	276	52.950129223613	0
10	277	53.150129223613	0
10	278	53.350129223613	0
10	279	53.550129223613	0
10	280	53.622992974565	0
10	281	53.822992974565	0
10	282	54.022992974565	0
10	283	54.222992974565	0
10	284	54.422992974565	0
10	285	54.622992974565	0
10	286	54.822992974565	0
10	287	55.022992974565	0
10	288	55.222992974565	0
10	289	55.422992974565	0
10	290	55.488593903891	0
10	291	55.688593903891	0
10	292	55.888593903891	0
10	293	56.088593903891	0
10	294	56.288593903891	0
10	295	56.488593903891	0
10	296	56.688593903891	0
10	297	56.888593903891	0
10	298	57.088593903891	0
10	299	57.240483561051	0
10	300	57.440483561051	0
10	301	57.640483561051	0
10	302	57.840483561051	0
10	303	58.040483561051	0
10	304	58.240483561051	0
10	305	58.440483561051	0
10	306	58.570528254719	0
10	307	58.770528254719	0
10	308	58.970528254719	0
10	309	59.170528254719	0
10	310	59.370528254719	0
10	311	59.570528254719	0
10	312	59.770528254719	0
10	313	59.970528254719	0
10	314	60.170528254719	0
10	315	60.370528254719	0
10	316	60.570528254719	0
10	317	60.770528254719	0
10	318	60.82918300164	0
10	319	61.02918300164	0
10	320	61.22918300164	0
10	321	61.42918300164	0
10	322	61.62918300164	0
10	323	61.82918300164	0
10	324	62.02918300164	0
10	325	62.22918300164	0
10	326	62.42918300164	0
10	327	62.62918300164	0
10	328	62.82918300164	0
10	329	62.850340708449	0
10	330	63.050340708449	0
10	331	63.250340708449	0
10	332	63.450340708449	0
10	333	63.650340708449	0
10	334	63.850340708449	0
10	335	64.050340708449	0
10	336	64.250340708449	0
10	337	64.450340708449	0
10	338	64.650340708449	0
10	339	64.850340708449	0
10	340	64.945278884033	0
10	341	65.145278884033	0
10	342	65.345278884033	0
10	343	65.545278884033	0
10	344	65.745278884033	0
10	345	65.945278884033	0
10	346	66.145278884033	0
10	347	66.345278884033	0
10	348	66.545278884033	0
10	349	66.745278884033	0
10	350	66.929798956858	0
10	351	67.129798956858	0
10	352	67.329798956858	0
10	353	67.529798956858	0
10	354	67.729798956858	0
10	355	67.929798956858	0
10	356	68.129798956858	0
10	357	68.329798956858	0
10	358	68.3956598512	0
10	359	68.5956598512	0
10	360	68.7956598512	0
10	361	68.9956598512	0
10	362	69.1956598512	0
10	363	69.3956598512	0
10	364	69.5956598512	0
10	365	69.7956598512	0
10	366	69.9956598512	0
10	367	70.1956598512	0
10	368	70.3956598512	0
10	369	70.5956598512	0
10	370	70.774341142943	0
10	371	70.974341142943	0
10	372	71.174341142943	0
10	373	71.374341142943	0
10	374	71.574341142943	0
10	375	71.774341142943	0
10	376	71.974341142943	0
10	377	72.174341142943	0
10	378	72.330071130442	0
10	379	72.530071130442	0
10	380	72.730071130442	0
10	381	72.930071130442	0
10	382	73.130071130442	0
10	383	73.330071130442	0
10	384	73.530071130442	0
10	385	73.730071130442	0
10	386	73.930071130442	0
10	387	73.989619709023	0
10	388	74.189619709023	0
10	389	74.389619709023	0
10	390	74.589619709023	0
10	391	74.789619709023	0
10	392	74.989619709023	0
10	393	75.189619709023	0
10	394	75.389619709023	0
10	395	75.589619709023	0
10	396	75.789619709023	0
10	397	75.989619709023	0
10	398	76.030121226819	0
10	399	76.230121226819	0
10	400	76.430121226819	0
10	401	76.630121226819	0
10	402	76.830121226819	0
10	403	77.030121226819	0
10	404	77.230121226819	0
10	405	77.430121226819	0
10	406	77.630121226819	0
10	407	77.830121226819	0
10	408	78.030121226819	0
10	409	78.230121226819	0
10	410	78.250097227816	0
10	411	78.450097227816	0
10	412	78.650097227816	0
10	413	78.850097227816	0
10	414	79.050097227816	0
10	415	79.250097227816	0
10	416	79.450097227816	0
10	417	79.650097227816	0
10	418	79.850097227816	0
11	0	0	0
11	1	0.2	0
11	2	0.4	0
11	3	0.6	0
11	4	0.8	0
11	5	1	0
11	6	1.2	0
11	7	1.4	0
11	8	1.6	0
11	9	1.8	0
11	10	2	0
11	11	2.2	0
11	12	2.4	0
11	13	2.6	0
11	14	2.8	0
11	15	3	0
11	16	3.006849263244	0
11	17	3.206849263244	0
11	18	3.406849263244	0
11	19	3.606849263244	0
11	20	3.806849263244	0
11	21	4.006849263244	0
11	22	4.206849263244	0
11	23	4.342288583592	0
11	24	4.542288583592	0
11	25	4.742288583592	0
11	26	4.942288583592	0
11	27	5.142288583592	0
11	28	5.342288583592	0
11	29	5.542288583592	0
11	30	5.742288583592	0
11	31	5.942288583592	0
11	32	6.142288583592	0
11	33	6.256351929486	0
11	34	6.456351929486	0
11	35	6.656351929486	0
11	36	6.856351929486	0
11	37	7.056351929486	0
11	38	7.256351929486	0
11	39	7.456351929486	0
11	40	7.656351929486	0
11	41	7.856351929486	0
11	42	8.056351929486	0
11	43	8.256351929486	0
11	44	8.456351929486	0
11	45	8.656351929486	0
11	46	8.856351929486	0
11	47	8.986572140708	0
11	48	9.186572140708	0
11	49	9.386572140708	0
11	50	9.586572140708	0
11	51	9.786572140708	0
11	52	9.986572140708	0
11	53	10.186572140708	0
11	54	10.386572140708	0
11	55	10.586572140708	0
11	56	10.7593039576	0
11	57	10.9593039576	0
11	58	11.1593039576	0
11	59	11.3593039576	0
11	60	11.5593039576	0
11	61	11.7593039576	0
11	62	11.9593039576	0
11	63	12.1593039576	0
11	64	12.3593039576	0
11	65	12.5593039576	0
11	66	12.7593039576	0
11	67	12.9593039576	0
11	68	13.1593039576	0
11	69	13.343700792773	0
11	70	13.543700792773	0
11	71	13.743700792773	0
11	72	13.943700792773	0
11	73	14.143700792773	0
11	74	14.343700792773	0
11	75	14.543700792773	0
11	76	14.743700792773	0
11	77	14.943700792773	0
11	78	15.143700792773	0
11	79	15.343700792773	0
11	80	15.543700792773	0
11	81	15.7422341158	0
11	82	15.9422341158	0
11	83	16.1422341158	0
11	84	16.3422341158	0
11	85	16.5422341158	0
11	86	16.7422341158	0
11	87	16.9422341158	0
11	88	17.1422341158	0
11	89	17.3422341158	0
11	90	17.5422341158	0
11	91	17.7422341158	0
11	92	17.875530447415	0
11	93	18.075530447415	0
11	94	18.275530447415	0
11	95	18.475530447415	0
11	96	18.675530447415	0
11	97	18.875530447415	0
11	98	19.075530447415	0
11	99	19.275530447415	0
11	100	19.475530447415	0
11	101	19.675530447415	0
11	102	19.875530447415	0
11	103	19.956405356341	0
11	104	20.156405356341	0
11	105	20.356405356341	0
11	106	20.556405356341	0
11	107	20.756405356341	0
11	108	20.956405356341	0
11	109	21.156405356341	0
11	110	21.356405356341	0
11	111	21.556405356341	0
11	112	21.756405356341	0
11	113	21.882804094249	0
11	114	22.082804094249	0
11	115	22.282804094249	0
11	116	22.482804094249	0
11	117	22.682804094249	0
11	118	22.882804094249	0
11	119	23.017575818356	0
11	120	23.217575818356	0
11	121	23.417575818356	0
11	122	23.617575818356	0
11	123	23.817575818356	0
11	124	24.017575818356	0
11	125	24.217575818356	0
11	126	24.417575818356	0
11	127	24.617575818356	0
11	128	24.817575818356	0
11	129	25.017575818356	0
11	130	25.217575818356	0
11	131	25.417575818356	0
11	132	25.617575818356	0
11	133	25.667528966843	0
11	134	25.867528966843	0
11	135	26.067528966843	0
11	136	26.267528966843	0
11	137	26.467528966843	0
11	138	26.667528966843	0
11	139	26.867528966843	0
11	140	27.067528966843	0
11	141	27.267528966843	0
11	142	27.32181205167	0
11	143	27.52181205167	0
11	144	27.72181205167	0
11	145	27.92181205167	0
11	146	28.12181205167	0
11	147	28.32181205167	0
11	148	28.52181205167	0
11	149	28.72181205167	0
11	150	28.92181205167	0
11	151	29.12181205167	0
11	152	29.32181205167	0
11	153	29.435578136165	0
11	154	29.635578136165	0
11	155	29.835578136165	0
11	156	30.035578136165	0
11	157	30.235578136165	0
11	158	30.435578136165	0
11	159	30.635578136165	0
11	160	30.835578136165	0
11	161	31.035578136165	0
11	162	31.235578136165	0
11	163	31.435578136165	0
11	164	31.635578136165	0
11	165	31.684650502377	0
11	166	31.884650502377	0
11	167	32.084650502377	0
11	168	32.284650502377	0
11	169	32.484650502377	0
11	170	32.684650502377	0
11	171	32.884650502377	0
11	172	32.942635370771	0
11	173	33.142635370771	0
11	174	33.342635370771	0
11	175	33.542635370771	0
11	176	33.742635370771	0
11	177	33.942635370771	0
11	178	34.142635370771	0
11	179	34.342635370771	0
11	180	34.542635370771	0
11	181	34.577626381392	0
11	182	34.777626381392	0
11	183	34.977626381392	0
11	184	35.177626381392	0
11	185	35.377626381392	0
11	186	35.577626381392	0
11	187	35.777626381392	0
11	188	35.977626381392	0
11	189	36.177626381392	0
11	190	36.377626381392	0
11	191	36.524664506777	0
11	192	36.724664506777	0
11	193	36.924664506777	0
11	194	37.124664506777	0
11	195	37.324664506777	0
11	196	37.524664506777	0
11	197	37.724664506777	0
11	198	37.924664506777	0
11	199	38.124664506777	0
11	200	38.324664506777	0
11	201	38.4107908185	0
11	202	38.6107908185	0
11	203	38.8107908185	0
11	204	39.0107908185	0
11	205	39.2107908185	0
11	206	39.4107908185	0
11	207	39.6107908185	0
11	208	39.8107908185	0
11	209	40.0107908185	0
11	210	40.2107908185	0
11	211	40.4107908185	0
11	212	40.6107908185	0
11	213	40.8107908185	0
11	214	41.0107908185	0
11	215	41.2107908185	0
11	216	41.4107908185	0
11	217	41.6107908185	0
11	218	41.629757033514	0
11	219	41.829757033514	0
11	220	42.029757033514	0
11	221	42.229757033514	0
11	222	42.429757033514	0
11	223	42.629757033514	0
11	224	42.829757033514	0
11	225	43.029757033514	0
11	226	43.229757033514	0
11	227	43.429757033514	0
11	228	43.629757033514	0
11	229	43.829757033514	0
11	230	44.029757033514	0
11	231	44.210341461858	0
11	232	44.410341461858	0
11	233	44.610341461858	0
11	234	44.810341461858	0
11	235	45.010341461858	0
11	236	45.210341461858	0
11	237	45.410341461858	0
11	238	45.610341461858	0
11	239	45.810341461858	0
11	240	46.010341461858	0
11	241	46.210341461858	0
11	242	46.335113817588	0
11	243	46.535113817588	0
11	244	46.735113817588	0
11	245	46.935113817588	0
11	246	47.135113817588	0
11	247	47.335113817588	0
11	248	47.513995707448	0
11	249	47.713995707448	0
11	250	47.913995707448	0
11	251	48.113995707448	0
11	252	48.313995707448	0
11	253	48.513995707448	0
11	254	48.713995707448	0
11	255	48.913995707448	0
11	256	48.963326435317	0
11	257	49.163326435317	0
11	258	49.363326435317	0
11	259	49.563326435317	0
11	260	49.763326435317	0
11	261	49.963326435317	0
11	262	50.163326435317	0
11	263	50.363326435317	0
11	264	50.563326435317	0
11	265	50.763326435317	0
11	266	50.950129223613	0
11	267	51.150129223613	0
11	268	51.350129223613	0
11	269	51.550129223613	0
11	270	51.750129223613	0
11	271	51.950129223613	0
11	272	52.150129223613	0
11	273	52.350129223613	0
11	274	52.550129223613	0
11	275	52.750129223613	0
11	276	52.950129223613	0
11	277	53.150129223613	0
11	278	53.350129223613	0
11	279	53.550129223613	0
11	280	53.622992974565	0
11	281	53.822992974565	0
11	282	54.022992974565	0
11	283	54.222992974565	0
11	284	54.422992974565	0
11	285	54.622992974565	0
11	286	54.822992974565	0
11	287	55.022992974565	0
11	288	55.222992974565	0
11	289	55.422992974565	0
11	290	55.488593903891	0
11	291	55.688593903891	0
11	292	55.888593903891	0
11	293	56.088593903891	0
11	294	56.288593903891	0
11	295	56.488593903891	0
11	296	56.688593903891	0
11	297	56.888593903891	0
11	298	57.088593903891	0
11	299	57.240483561051	0
11	300	57.440483561051	0
11	301	57.640483561051	0
11	302	57.840483561051	0
11	303	58.040483561051	0
11	304	58.240483561051	0
11	305	58.440483561051	0
11	306	58.570528254719	0
11	307	58.770528254719	0
11	308	58.970528254719	0
11	309	59.170528254719	0
11	310	59.370528254719	0
11	311	59.570528254719	0
11	312	59.770528254719	0
11	313	59.970528254719	0
11	314	60.170528254719	0
11	315	60.370528254719	0
11	316	60.570528254719	0
11	317	60.770528254719	0
11	318	60.82918300164	0
11	319	61.02918300164	0
11	320	61.22918300164	0
11	321	61.42918300164	0
11	322	61.62918300164	0
11	323	61.82918300164	0
11	324	62.02918300164	0
11	325	62.22918300164	0
11	326	62.42918300164	0
11	327	62.62918300164	0
11	328	62.82918300164	0
11	329	62.850340708449	0
11	330	63.050340708449	0
11	331	63.250340708449	0
11	332	63.450340708449	0
11	333	63.650340708449	0
11	334	63.850340708449	0
11	335	64.050340708449	0
11	336	64.250340708449	0
11	337	64.450340708449	0
11	338	64.650340708449	0
11	339	64.850340708449	0
11	340	64.945278884033	0
11	341	65.145278884033	0
11	342	65.345278884033	0
11	343	65.545278884033	0
11	344	65.745278884033	0
11	345	65.945278884033	0
11	346	66.145278884033	0
11	347	66.345278884033	0
11	348	66.545278884033	0
11	349	66.745278884033	0
11	350	66.929798956858	0
11	351	67.129798956858	0
11	352	67.329798956858	0
11	353	67.529798956858	0
11	354	67.729798956858	0
11	355	67.929798956858	0
11	356	68.129798956858	0
11	357	68.329798956858	0
11	358	68.3956598512	0
11	359	68.5956598512	0
11	360	68.7956598512	0
11	361	68.9956598512	0
11	362	69.1956598512	0
11	363	69.3956598512	0
11	364	69.5956598512	0
11	365	69.7956598512	0
11	366	69.9956598512	0
11	367	70.1956598512	0
11	368	70.3956598512	0
11	369	70.5956598512	0
11	370	70.774341142943	0
11	371	70.974341142943	0
11	372	71.174341142943	0
11	373	71.374341142943	0
11	374	71.574341142943	0
11	375	71.774341142943	0
11	376	71.974341142943	0
11	377	72.174341142943	0
11	378	72.330071130442	0
11	379	72.530071130442	0
11	380	72.730071130442	0
11	381	72.930071130442	0
11	382	73.130071130442	0
11	383	73.330071130442	0
11	384	73.530071130442	0
11	385	73.730071130442	0
11	386	73.930071130442	0
11	387	73.989619709023	0
11	388	74.189619709023	0
11	389	74.389619709023	0
11	390	74.589619709023	0
11	391	74.789619709023	0
11	392	74.989619709023	0
11	393	75.189619709023	0
11	394	75.389619709023	0
11	395	75.589619709023	0
11	396	75.789619709023	0
11	397	75.989619709023	0
11	398	76.030121226819	0
11	399	76.230121226819	0
11	400	76.430121226819	0
11	401	76.630121226819	0
11	402	76.830121226819	0
11	403	77.030121226819	0
11	404	77.230121226819	0
11	405	77.430121226819	0
11	406	77.630121226819	0
11	407	77.830121226819	0
11	408	78.030121226819	0
11	409	78.230121226819	0
11	410	78.250097227816	0
11	411	78.450097227816	0
11	412	78.650097227816	0
11	413	78.850097227816	0
11	414	79.050097227816	0
11	415	79.250097227816	0
11	416	79.450097227816	0
11	417	79.650097227816	0
11	418	79.850097227816	0
12	0	0	0
12	1	0.2	0
12	2	0.4	0
12	3	0.6	0
12	4	0.8	0
12	5	1	0
12	6	1.2	0
12	7	1.4	0
12	8	1.6	0
12	9	1.8	0
12	10	2	0
12	11	2.2	0
12	12	2.4	0
12	13	2.6	0
12	14	2.8	0
12	15	3	0
12	16	3.006849263244	0
12	17	3.206849263244	0
12	18	3.406849263244	0
12	19	3.606849263244	0
12	20	3.806849263244	0
12	21	4.006849263244	0
12	22	4.206849263244	0
12	23	4.342288583592	0
12	24	4.542288583592	0
12	25	4.742288583592	0
12	26	4.942288583592	0
12	27	5.142288583592	0
12	28	5.342288583592	0
12	29	5.542288583592	0
12	30	5.742288583592	0
12	31	5.942288583592	0
12	32	6.142288583592	0
12	33	6.256351929486	0
12	34	6.456351929486	0
12	35	6.656351929486	0
12	36	6.856351929486	0
12	37	7.056351929486	0
12	38	7.256351929486	0
12	39	7.456351929486	0
12	40	7.656351929486	0
12	41	7.856351929486	0
12	42	8.056351929486	0
12	43	8.256351929486	0
12	44	8.456351929486	0
12	45	8.656351929486	0
12	46	8.856351929486	0
12	47	8.986572140708	0
12	48	9.186572140708	0
12	49	9.386572140708	0
12	50	9.586572140708	0
12	51	9.786572140708	0
12	52	9.986572140708	0
12	53	10.186572140708	0
12	54	10.386572140708	0
12	55	10.586572140708	0
12	56	10.7593039576	0
12	57	10.9593039576	0
12	58	11.1593039576	0
12	59	11.3593039576	0
12	60	11.5593039576	0
12	61	11.7593039576	0
12	62	11.9593039576	0
12	63	12.1593039576	0
12	64	12.3593039576	0
12	65	12.5593039576	0
12	66	12.7593039576	0
12	67	12.9593039576	0
12	68	13.1593039576	0
12	69	13.343700792773	0
12	70	13.543700792773	0
12	71	13.743700792773	0
12	72	13.943700792773	0
12	73	14.143700792773	0
12	74	14.343700792773	0
12	75	14.543700792773	0
12	76	14.743700792773	0
12	77	14.943700792773	0
12	78	15.143700792773	0
12	79	15.343700792773	0
12	80	15.543700792773	0
12	81	15.7422341158	0
12	82	15.9422341158	0
12	83	16.1422341158	0
12	84	16.3422341158	0
12	85	16.5422341158	0
12	86	16.7422341158	0
12	87	16.9422341158	0
12	88	17.1422341158	0
12	89	17.3422341158	0
12	90	17.5422341158	0
12	91	17.7422341158	0
12	92	17.875530447415	0
12	93	18.075530447415	0
12	94	18.275530447415	0
12	95	18.475530447415	0
12	96	18.675530447415	0
12	97	18.875530447415	0
12	98	19.075530447415	0
12	99	19.275530447415	0
12	100	19.475530447415	0
12	101	19.675530447415	0
12	102	19.875530447415	0
12	103	19.956405356341	0
12	104	20.156405356341	0
12	105	20.356405356341	0
12	106	20.556405356341	0
12	107	20.756405356341	0
12	108	20.956405356341	0
12	109	21.156405356341	0
12	110	21.356405356341	0
12	111	21.556405356341	0
12	112	21.756405356341	0
12	113	21.882804094249	0
12	114	22.082804094249	0
12	115	22.282804094249	0
12	116	22.482804094249	0
12	117	22.682804094249	0
12	118	22.882804094249	0
12	119	23.017575818356	0
12	120	23.217575818356	0
12	121	23.417575818356	0
12	122	23.617575818356	0
12	123	23.817575818356	0
12	124	24.017575818356	0
12	125	24.217575818356	0
12	126	24.417575818356	0
12	127	24.617575818356	0
12	128	24.817575818356	0
12	129	25.017575818356	0
12	130	25.217575818356	0
12	131	25.417575818356	0
12	132	25.617575818356	0
12	133	25.667528966843	0
12	134	25.867528966843	0
12	135	26.067528966843	0
12	136	26.267528966843	0
12	137	26.467528966843	0
12	138	26.667528966843	0
12	139	26.867528966843	0
12	140	27.067528966843	0
12	141	27.267528966843	0
12	142	27.32181205167	0
12	143	27.52181205167	0
12	144	27.72181205167	0
12	145	27.92181205167	0
12	146	28.12181205167	0
12	147	28.32181205167	0
12	148	28.52181205167	0
12	149	28.72181205167	0
12	150	28.92181205167	0
12	151	29.12181205167	0
12	152	29.32181205167	0
12	153	29.435578136165	0
12	154	29.635578136165	0
12	155	29.835578136165	0
12	156	30.035578136165	0
12	157	30.235578136165	0
12	158	30.435578136165	0
12	159	30.635578136165	0
12	160	30.835578136165	0
12	161	31.035578136165	0
12	162	31.235578136165	0
12	163	31.435578136165	0
12	164	31.635578136165	0
12	165	31.684650502377	0
12	166	31.884650502377	0
12	167	32.084650502377	0
12	168	32.284650502377	0
12	169	32.484650502377	0
12	170	32.684650502377	0
12	171	32.884650502377	0
12	172	32.942635370771	0
12	173	33.142635370771	0
12	174	33.342635370771	0
12	175	33.542635370771	0
12	176	33.742635370771	0
12	177	33.942635370771	0
12	178	34.142635370771	0
12	179	34.342635370771	0
12	180	34.542635370771	0
12	181	34.577626381392	0
12	182	34.777626381392	0
12	183	34.977626381392	0
12	184	35.177626381392	0
12	185	35.377626381392	0
12	186	35.577626381392	0
12	187	35.777626381392	0
12	188	35.977626381392	0
12	189	36.177626381392	0