version 3
run CNPF-24-20240912-08:19:27-54225
attr configname CNPF
attr datetime 20240912-08:19:27
attr datetimef 20240912-081927
attr experiment CNPF
attr inifile omnetpp.ini
attr iterationvars $0=25
attr iterationvarsd 25
attr iterationvarsf 25-
attr measurement $0=25
attr network ParcelDeliveryNetwork
attr processid 54225
attr repetition 4
attr replication #4
attr resultdir results
attr runnumber 24
attr seedset 24
config image-path ../inet/images
config network ParcelDeliveryNetwork
config description "1 drones, 30 destinations, 30 parcels, "
config *.numdrones 1
config **.drone*.mobility.typename DroneNetMob
config **.drone[*].mobility.ndst 25
config **.drone[*].mobility.nd 8
config **.drone[*].mobility.npar 30
config **.drone[*].mobility.initFromDisplayString false
config **.drone[*].mobility.changeInterval "truncnormal(2s, 0.5s)"
config **.drone[*].mobility.angleDelta "normal(0deg, 30deg)"
config **.drone[*].mobility.speed 10mps
config **.drone[*].mobility.remainingBattery 480
config **.drone[*].mobility.weightCapacity 100
config **.drone[*].mobility.parcelSelectionMethod 0
config **.drone[*].mobility.initialX 0m
config **.drone[*].mobility.initialY 0m
config **.drone[*].mobility.initialZ 0m
config repeat 10
config sim-time-limit 80second
config **.constraintAreaMinX 0m
config **.constraintAreaMinY 0m
config **.constraintAreaMinZ 0m
config **.constraintAreaMaxX 600m
config **.constraintAreaMaxY 400m
config **.constraintAreaMaxZ 0m
config **.updateInterval 0.2s

vector 0 ParcelDeliveryNetwork.gcs.wlan[0].mac.dcf frameSequenceActive:vector ETV
attr autoWarmupFilter false
attr interpolationmode sample-hold
attr recordingmode vector
attr source warmup(count(frameSequenceStarted)-count(frameSequenceFinished))
attr title "frame sequence active"
vector 1 ParcelDeliveryNetwork.gcs.wlan[0].mac.dcf.channelAccess.pendingQueue queueLength:vector ETV
attr autoWarmupFilter false
attr interpolationmode sample-hold
attr recordingmode vector
attr source "warmup(atomic(constant0(packetPushEnded) + count(packetPushStarted) - count(packetPulled) - count(packetRemoved) - count(packetDropped)))"
attr title "queue length"
attr unit pk
vector 2 ParcelDeliveryNetwork.gcs.wlan[0].mac.dcf.channelAccess.pendingQueue queueBitLength:vector ETV
attr autoWarmupFilter false
attr interpolationmode sample-hold
attr recordingmode vector
attr source "warmup(atomic(constant0(packetPushEnded) + sum(packetLength(packetPushStarted)) - sum(packetLength(packetPulled)) - sum(packetLength(packetRemoved)) - sum(packetLength(packetDropped))))"
attr title "queue bit length"
attr unit b
vector 3 ParcelDeliveryNetwork.gcs.wlan[0].mac.dcf.channelAccess.inProgressFrames queueLength:vector ETV
attr autoWarmupFilter false
attr interpolationmode sample-hold
attr recordingmode vector
attr source "warmup(count(packetEnqueued) - count(packetDequeued))"
attr title "queue length"
vector 4 ParcelDeliveryNetwork.gcs.wlan[0].mac.dcf.channelAccess.contention backoffActive:vector ETV
attr autoWarmupFilter false
attr interpolationmode sample-hold
attr recordingmode vector
attr source warmup(count(backoffStarted)-count(backoffStopped))
attr title "backoff active"
vector 5 ParcelDeliveryNetwork.gcs.udp passedUpPk:vector(count) ETV
attr interpolationmode none
attr recordingmode vector(count)
attr source packetSentToUpper
attr title "packets passed up, count"
vector 6 ParcelDeliveryNetwork.gcs.udp droppedPkWrongPort:vector(count) ETV
attr interpolationmode none
attr recordingmode vector(count)
attr source packetDropReasonIsNoPortFound(packetDropped)
attr title "packets dropped (wrong port), count"
vector 7 ParcelDeliveryNetwork.gcs.udp droppedPkBadChecksum:vector(count) ETV
attr interpolationmode none
attr recordingmode vector(count)
attr source packetDropReasonIsIncorrectlyReceived(packetDropped)
attr title "packets dropped (checksum error), count"
vector 8 ParcelDeliveryNetwork.gcs.wlan[0].radio radioMode:vector ETV
attr interpolationmode sample-hold
attr recordingmode vector
attr source radioModeChanged
attr title "Radio mode"
vector 9 ParcelDeliveryNetwork.gcs.wlan[0].radio radioChannel:vector ETV
attr interpolationmode sample-hold
attr recordingmode vector
attr source radioChannelChanged
attr title "Radio channel"
vector 10 ParcelDeliveryNetwork.drone[0] coordX:vector ETV
attr interpolationmode linear
attr recordingmode vector
attr source xCoord(mobilityPos(mobilityStateChanged))
attr title "coord X"
vector 11 ParcelDeliveryNetwork.drone[0] coordY:vector ETV
attr interpolationmode linear
attr recordingmode vector
attr source yCoord(mobilityPos(mobilityStateChanged))
attr title "coord Y"
vector 12 ParcelDeliveryNetwork.drone[0] coordZ:vector ETV
attr interpolationmode linear
attr recordingmode vector
attr source zCoord(mobilityPos(mobilityStateChanged))
attr title "coord Z"
vector 13 ParcelDeliveryNetwork.gcs.wlan[0].radio receptionState:vector ETV
attr interpolationmode sample-hold
attr recordingmode vector
attr source receptionStateChanged
attr title "Radio reception state"
vector 14 ParcelDeliveryNetwork.gcs.wlan[0].mac.dcf.channelAccess.contention stateChanged:vector ETV
attr enum IDLE,DEFER,IFS_AND_BACKOFF
attr interpolationmode none
attr recordingmode vector
attr title "contention state changed"
attr type enum
vector 15 ParcelDeliveryNetwork.gcs.wlan[0].mac.dcf.recoveryProcedure contentionWindowChanged:vector ETV
attr interpolationmode sample-hold
attr recordingmode vector
attr title "contention window"
0	0	0	0
0	0	0	0
1	0	0	0
1	0	0	0
1	0	0	0
1	0	0	0
1	0	0	0
2	0	0	0
2	0	0	0
2	0	0	0
2	0	0	0
2	0	0	0
3	0	0	0
3	0	0	0
4	0	0	0
4	0	0	0
5	0	0	0
6	0	0	0
7	0	0	0
8	0	0	0
8	0	0	0
8	0	0	2
9	0	0	0
10	0	0	0
10	1	0.2	0
10	2	0.4	0
10	3	0.6	0
10	4	0.8	0
10	5	1	0
10	6	1.130717865919	0
10	7	1.330717865919	0
10	8	1.530717865919	0
10	9	1.730717865919	0
10	10	1.930717865919	0
10	11	2.130717865919	0
10	12	2.330717865919	0
10	13	2.530717865919	0
10	14	2.730717865919	0
10	15	2.930717865919	0
10	16	3.130717865919	0
10	17	3.330717865919	0
10	18	3.481451595991	0
10	19	3.681451595991	0
10	20	3.881451595991	0
10	21	4.081451595991	0
10	22	4.281451595991	0
10	23	4.481451595991	0
10	24	4.681451595991	0
10	25	4.881451595991	0
10	26	5.008957204654	0
10	27	5.208957204654	0
10	28	5.408957204654	0
10	29	5.608957204654	0
10	30	5.808957204654	0
10	31	6.008957204654	0
10	32	6.208957204654	0
10	33	6.408957204654	0
10	34	6.608957204654	0
10	35	6.808957204654	0
10	36	7.008957204654	0
10	37	7.198900638407	0
10	38	7.398900638407	0
10	39	7.541529823298	0
10	40	7.741529823298	0
10	41	7.941529823298	0
10	42	8.141529823298	0
10	43	8.341529823298	0
10	44	8.541529823298	0
10	45	8.741529823298	0
10	46	8.941529823298	0
10	47	9.141529823298	0
10	48	9.221265533912	0
10	49	9.421265533912	0
10	50	9.621265533912	0
10	51	9.821265533912	0
10	52	10.021265533912	0
10	53	10.221265533912	0
10	54	10.421265533912	0
10	55	10.621265533912	0
10	56	10.821265533912	0
10	57	11.021265533912	0
10	58	11.179507123803	0
10	59	11.379507123803	0
10	60	11.579507123803	0
10	61	11.779507123803	0
10	62	11.979507123803	0
10	63	12.179507123803	0
10	64	12.379507123803	0
10	65	12.579507123803	0
10	66	12.721852612635	0
10	67	12.921852612635	0
10	68	13.121852612635	0
10	69	13.321852612635	0
10	70	13.521852612635	0
10	71	13.721852612635	0
10	72	13.921852612635	0
10	73	14.121852612635	0
10	74	14.321852612635	0
10	75	14.521852612635	0
10	76	14.721852612635	0
10	77	14.921852612635	0
10	78	15.121852612635	0
10	79	15.157839381767	0
10	80	15.357839381767	0
10	81	15.557839381767	0
10	82	15.757839381767	0
10	83	15.957839381767	0
10	84	16.157839381767	0
10	85	16.357839381767	0
10	86	16.557839381767	0
10	87	16.757839381767	0
10	88	16.913518779415	0
10	89	17.113518779415	0
10	90	17.313518779415	0
10	91	17.513518779415	0
10	92	17.713518779415	0
10	93	17.913518779415	0
10	94	18.113518779415	0
10	95	18.270944606431	0
10	96	18.470944606431	0
10	97	18.670944606431	0
10	98	18.870944606431	0
10	99	19.070944606431	0
10	100	19.270944606431	0
10	101	19.470944606431	0
10	102	19.670944606431	0
10	103	19.870944606431	0
10	104	20.070944606431	0
10	105	20.270944606431	0
10	106	20.470944606431	0
10	107	20.670944606431	0
10	108	20.870944606431	0
10	109	21.070944606431	0
10	110	21.144183387406	0
10	111	21.344183387406	0
10	112	21.544183387406	0
10	113	21.744183387406	0
10	114	21.944183387406	0
10	115	22.144183387406	0
10	116	22.344183387406	0
10	117	22.544183387406	0
10	118	22.744183387406	0
10	119	22.944183387406	0
10	120	23.100886128228	0
10	121	23.300886128228	0
10	122	23.500886128228	0
10	123	23.700886128228	0
10	124	23.900886128228	0
10	125	24.100886128228	0
10	126	24.300886128228	0
10	127	24.500886128228	0
10	128	24.700886128228	0
10	129	24.900886128228	0
10	130	25.042445803991	0
10	131	25.242445803991	0
10	132	25.442445803991	0
10	133	25.642445803991	0
10	134	25.842445803991	0
10	135	26.042445803991	0
10	136	26.242445803991	0
10	137	26.299568702183	0
10	138	26.499568702183	0
10	139	26.699568702183	0
10	140	26.899568702183	0
10	141	27.099568702183	0
10	142	27.299568702183	0
10	143	27.499568702183	0
10	144	27.672838990087	0
10	145	27.872838990087	0
10	146	28.072838990087	0
10	147	28.272838990087	0
10	148	28.472838990087	0
10	149	28.672838990087	0
10	150	28.872838990087	0
10	151	29.072838990087	0
10	152	29.272838990087	0
10	153	29.472838990087	0
10	154	29.672838990087	0
10	155	29.872838990087	0
10	156	30.072838990087	0
10	157	30.272838990087	0
10	158	30.274340793836	0
10	159	30.474340793836	0
10	160	30.674340793836	0
10	161	30.874340793836	0
10	162	31.074340793836	0
10	163	31.258309757666	0
10	164	31.458309757666	0
10	165	31.658309757666	0
10	166	31.858309757666	0
10	167	32.058309757666	0
10	168	32.258309757666	0
10	169	32.458309757666	0
10	170	32.658309757666	0
10	171	32.705353271686	0
10	172	32.905353271686	0
10	173	33.105353271686	0
10	174	33.305353271686	0
10	175	33.505353271686	0
10	176	33.705353271686	0
10	177	33.905353271686	0
10	178	34.105353271686	0
10	179	34.305353271686	0
10	180	34.31044106971	0
10	181	34.51044106971	0
10	182	34.71044106971	0
10	183	34.91044106971	0
10	184	35.11044106971	0
10	185	35.31044106971	0
10	186	35.51044106971	0
10	187	35.606356019497	0
10	188	35.806356019497	0
10	189	36.006356019497	0
10	190	36.206356019497	0
10	191	36.406356019497	0
10	192	36.606356019497	0
10	193	36.806356019497	0
10	194	37.006356019497	0
10	195	37.176513097924	0
10	196	37.376513097924	0
10	197	37.576513097924	0
10	198	37.776513097924	0
10	199	37.976513097924	0
10	200	38.176513097924	0
10	201	38.376513097924	0
10	202	38.431813351402	0
10	203	38.631813351402	0
10	204	38.831813351402	0
10	205	39.031813351402	0
10	206	39.231813351402	0
10	207	39.431813351402	0
10	208	39.631813351402	0
10	209	39.831813351402	0
10	210	40.031813351402	0
10	211	40.231813351402	0
10	212	40.431813351402	0
10	213	40.631813351402	0
10	214	40.831813351402	0
10	215	41.031813351402	0
10	216	41.231813351402	0
10	217	41.43035433877	0
10	218	41.63035433877	0
10	219	41.83035433877	0
10	220	42.03035433877	0
10	221	42.23035433877	0
10	222	42.43035433877	0
10	223	42.63035433877	0
10	224	42.83035433877	0
10	225	43.03035433877	0
10	226	43.23035433877	0
10	227	43.43035433877	0
10	228	43.63035433877	0
10	229	43.83035433877	0
10	230	44.03035433877	0
10	231	44.23035433877	0
10	232	44.43035433877	0
10	233	44.478325960478	0
10	234	44.678325960478	0
10	235	44.878325960478	0
10	236	45.078325960478	0
10	237	45.278325960478	0
10	238	45.478325960478	0
10	239	45.678325960478	0
10	240	45.878325960478	0
10	241	46.078325960478	0
10	242	46.278325960478	0
10	243	46.478325960478	0
10	244	46.678325960478	0
10	245	46.878325960478	0
10	246	47.078325960478	0
10	247	47.164741212114	0
10	248	47.364741212114	0
10	249	47.564741212114	0
10	250	47.764741212114	0
10	251	47.964741212114	0
10	252	48.164741212114	0
10	253	48.364741212114	0
10	254	48.564741212114	0
10	255	48.764741212114	0
10	256	48.964741212114	0
10	257	49.164741212114	0
10	258	49.364741212114	0
10	259	49.564741212114	0
10	260	49.764741212114	0
10	261	49.798215635732	0
10	262	49.998215635732	0
10	263	50.198215635732	0
10	264	50.398215635732	0
10	265	50.598215635732	0
10	266	50.798215635732	0
10	267	50.998215635732	0
10	268	51.198215635732	0
10	269	51.398215635732	0
10	270	51.598215635732	0
10	271	51.798215635732	0
10	272	51.998215635732	0
10	273	52.076667204905	0
10	274	52.276667204905	0
10	275	52.476667204905	0
10	276	52.676667204905	0
10	277	52.876667204905	0
10	278	53.076667204905	0
10	279	53.276667204905	0
10	280	53.476667204905	0
10	281	53.676667204905	0
10	282	53.876667204905	0
10	283	54.076667204905	0
10	284	54.276667204905	0
10	285	54.294883332468	0
10	286	54.494883332468	0
10	287	54.694883332468	0
10	288	54.894883332468	0
10	289	55.094883332468	0
10	290	55.294883332468	0
10	291	55.494883332468	0
10	292	55.694883332468	0
10	293	55.709301239243	0
10	294	55.909301239243	0
10	295	56.109301239243	0
10	296	56.309301239243	0
10	297	56.509301239243	0
10	298	56.709301239243	0
10	299	56.909301239243	0
10	300	57.109301239243	0
10	301	57.309301239243	0
10	302	57.509301239243	0
10	303	57.709301239243	0
10	304	57.909301239243	0
10	305	58.109301239243	0
10	306	58.309301239243	0
10	307	58.509301239243	0
10	308	58.600285250934	0
10	309	58.800285250934	0
10	310	59.000285250934	0
10	311	59.200285250934	0
10	312	59.400285250934	0
10	313	59.600285250934	0
10	314	59.800285250934	0
10	315	60.000285250934	0
10	316	60.200285250934	0
10	317	60.400285250934	0
10	318	60.600285250934	0
10	319	60.800285250934	0
10	320	61.000285250934	0
10	321	61.159143397846	0
10	322	61.359143397846	0
10	323	61.559143397846	0
10	324	61.759143397846	0
10	325	61.959143397846	0
10	326	62.159143397846	0
10	327	62.336598367645	0
10	328	62.536598367645	0
10	329	62.736598367645	0
10	330	62.936598367645	0
10	331	63.136598367645	0
10	332	63.336598367645	0
10	333	63.536598367645	0
10	334	63.736598367645	0
10	335	63.890422236741	0
10	336	64.090422236741	0
10	337	64.290422236741	0
10	338	64.490422236741	0
10	339	64.690422236741	0
10	340	64.890422236741	0
10	341	65.090422236741	0
10	342	65.290422236741	0
10	343	65.38912746652	0
10	344	65.58912746652	0
10	345	65.78912746652	0
10	346	65.98912746652	0
10	347	66.18912746652	0
10	348	66.38912746652	0
10	349	66.58912746652	0
10	350	66.78912746652	0
10	351	66.98912746652	0
10	352	67.18912746652	0
10	353	67.38912746652	0
10	354	67.444903764159	0
10	355	67.644903764159	0
10	356	67.844903764159	0
10	357	68.044903764159	0
10	358	68.244903764159	0
10	359	68.444903764159	0
10	360	68.462435114942	0
10	361	68.662435114942	0
10	362	68.862435114942	0
10	363	69.062435114942	0
10	364	69.262435114942	0
10	365	69.462435114942	0
10	366	69.662435114942	0
10	367	69.862435114942	0
10	368	70.062435114942	0
10	369	70.262435114942	0
10	370	70.31159625601	0
10	371	70.51159625601	0
10	372	70.71159625601	0
10	373	70.91159625601	0
10	374	71.11159625601	0
10	375	71.31159625601	0
10	376	71.51159625601	0
10	377	71.71159625601	0
10	378	71.91159625601	0
10	379	72.11159625601	0
10	380	72.31159625601	0
10	381	72.358672957339	0
10	382	72.558672957339	0
10	383	72.758672957339	0
10	384	72.958672957339	0
10	385	73.158672957339	0
10	386	73.358672957339	0
10	387	73.558672957339	0
10	388	73.758672957339	0
10	389	73.958672957339	0
10	390	74.158672957339	0
10	391	74.301765268438	0
10	392	74.501765268438	0
10	393	74.701765268438	0
10	394	74.901765268438	0
10	395	75.101765268438	0
10	396	75.301765268438	0
10	397	75.501765268438	0
10	398	75.701765268438	0
10	399	75.901765268438	0
10	400	76.101765268438	0
10	401	76.190378495427	0
10	402	76.390378495427	0
10	403	76.590378495427	0
10	404	76.790378495427	0
10	405	76.990378495427	0
10	406	77.190378495427	0
10	407	77.390378495427	0
10	408	77.590378495427	0
10	409	77.790378495427	0
10	410	77.9390443853	0
10	411	78.1390443853	0
10	412	78.3390443853	0
10	413	78.5390443853	0
10	414	78.7390443853	0
10	415	78.9390443853	0
10	416	79.1390443853	0
10	417	79.3390443853	0
10	418	79.49206586	0
10	419	79.69206586	0
10	420	79.89206586	0
11	0	0	0
11	1	0.2	0
11	2	0.4	0
11	3	0.6	0
11	4	0.8	0
11	5	1	0
11	6	1.130717865919	0
11	7	1.330717865919	0
11	8	1.530717865919	0
11	9	1.730717865919	0
11	10	1.930717865919	0
11	11	2.130717865919	0
11	12	2.330717865919	0
11	13	2.530717865919	0
11	14	2.730717865919	0
11	15	2.930717865919	0
11	16	3.130717865919	0
11	17	3.330717865919	0
11	18	3.481451595991	0
11	19	3.681451595991	0
11	20	3.881451595991	0
11	21	4.081451595991	0
11	22	4.281451595991	0
11	23	4.481451595991	0
11	24	4.681451595991	0
11	25	4.881451595991	0
11	26	5.008957204654	0
11	27	5.208957204654	0
11	28	5.408957204654	0
11	29	5.608957204654	0
11	30	5.808957204654	0
11	31	6.008957204654	0
11	32	6.208957204654	0
11	33	6.408957204654	0
11	34	6.608957204654	0
11	35	6.808957204654	0
11	36	7.008957204654	0
11	37	7.198900638407	0
11	38	7.398900638407	0
11	39	7.541529823298	0
11	40	7.741529823298	0
11	41	7.941529823298	0
11	42	8.141529823298	0
11	43	8.341529823298	0
11	44	8.541529823298	0
11	45	8.741529823298	0
11	46	8.941529823298	0
11	47	9.141529823298	0
11	48	9.221265533912	0
11	49	9.421265533912	0
11	50	9.621265533912	0
11	51	9.821265533912	0
11	52	10.021265533912	0
11	53	10.221265533912	0
11	54	10.421265533912	0
11	55	10.621265533912	0
11	56	10.821265533912	0
11	57	11.021265533912	0
11	58	11.179507123803	0
11	59	11.379507123803	0
11	60	11.579507123803	0
11	61	11.779507123803	0
11	62	11.979507123803	0
11	63	12.179507123803	0
11	64	12.379507123803	0
11	65	12.579507123803	0
11	66	12.721852612635	0
11	67	12.921852612635	0
11	68	13.121852612635	0
11	69	13.321852612635	0
11	70	13.521852612635	0
11	71	13.721852612635	0
11	72	13.921852612635	0
11	73	14.121852612635	0
11	74	14.321852612635	0
11	75	14.521852612635	0
11	76	14.721852612635	0
11	77	14.921852612635	0
11	78	15.121852612635	0
11	79	15.157839381767	0
11	80	15.357839381767	0
11	81	15.557839381767	0
11	82	15.757839381767	0
11	83	15.957839381767	0
11	84	16.157839381767	0
11	85	16.357839381767	0
11	86	16.557839381767	0
11	87	16.757839381767	0
11	88	16.913518779415	0
11	89	17.113518779415	0
11	90	17.313518779415	0
11	91	17.513518779415	0
11	92	17.713518779415	0
11	93	17.913518779415	0
11	94	18.113518779415	0
11	95	18.270944606431	0
11	96	18.470944606431	0
11	97	18.670944606431	0
11	98	18.870944606431	0
11	99	19.070944606431	0
11	100	19.270944606431	0
11	101	19.470944606431	0
11	102	19.670944606431	0
11	103	19.870944606431	0
11	104	20.070944606431	0
11	105	20.270944606431	0
11	106	20.470944606431	0
11	107	20.670944606431	0
11	108	20.870944606431	0
11	109	21.070944606431	0
11	110	21.144183387406	0
11	111	21.344183387406	0
11	112	21.544183387406	0
11	113	21.744183387406	0
11	114	21.944183387406	0
11	115	22.144183387406	0
11	116	22.344183387406	0
11	117	22.544183387406	0
11	118	22.744183387406	0
11	119	22.944183387406	0
11	120	23.100886128228	0
11	121	23.300886128228	0
11	122	23.500886128228	0
11	123	23.700886128228	0
11	124	23.900886128228	0
11	125	24.100886128228	0
11	126	24.300886128228	0
11	127	24.500886128228	0
11	128	24.700886128228	0
11	129	24.900886128228	0
11	130	25.042445803991	0
11	131	25.242445803991	0
11	132	25.442445803991	0
11	133	25.642445803991	0
11	134	25.842445803991	0
11	135	26.042445803991	0
11	136	26.242445803991	0
11	137	26.299568702183	0
11	138	26.499568702183	0
11	139	26.699568702183	0
11	140	26.899568702183	0
11	141	27.099568702183	0
11	142	27.299568702183	0
11	143	27.499568702183	0
11	144	27.672838990087	0
11	145	27.872838990087	0
11	146	28.072838990087	0
11	147	28.272838990087	0
11	148	28.472838990087	0
11	149	28.672838990087	0
11	150	28.872838990087	0
11	151	29.072838990087	0
11	152	29.272838990087	0
11	153	29.472838990087	0
11	154	29.672838990087	0
11	155	29.872838990087	0
11	156	30.072838990087	0
11	157	30.272838990087	0
11	158	30.274340793836	0
11	159	30.474340793836	0
11	160	30.674340793836	0
11	161	30.874340793836	0
11	162	31.074340793836	0
11	163	31.258309757666	0
11	164	31.458309757666	0
11	165	31.658309757666	0
11	166	31.858309757666	0
11	167	32.058309757666	0
11	168	32.258309757666	0
11	169	32.458309757666	0
11	170	32.658309757666	0
11	171	32.705353271686	0
11	172	32.905353271686	0
11	173	33.105353271686	0
11	174	33.305353271686	0
11	175	33.505353271686	0
11	176	33.705353271686	0
11	177	33.905353271686	0
11	178	34.105353271686	0
11	179	34.305353271686	0
11	180	34.31044106971	0
11	181	34.51044106971	0
11	182	34.71044106971	0
11	183	34.91044106971	0
11	184	35.11044106971	0
11	185	35.31044106971	0
11	186	35.51044106971	0
11	187	35.606356019497	0
11	188	35.806356019497	0
11	189	36.006356019497	0
11	190	36.206356019497	0
11	191	36.406356019497	0
11	192	36.606356019497	0
11	193	36.806356019497	0
11	194	37.006356019497	0
11	195	37.176513097924	0
11	196	37.376513097924	0
11	197	37.576513097924	0
11	198	37.776513097924	0
11	199	37.976513097924	0
11	200	38.176513097924	0
11	201	38.376513097924	0
11	202	38.431813351402	0
11	203	38.631813351402	0
11	204	38.831813351402	0
11	205	39.031813351402	0
11	206	39.231813351402	0
11	207	39.431813351402	0
11	208	39.631813351402	0
11	209	39.831813351402	0
11	210	40.031813351402	0
11	211	40.231813351402	0
11	212	40.431813351402	0
11	213	40.631813351402	0
11	214	40.831813351402	0
11	215	41.031813351402	0
11	216	41.231813351402	0
11	217	41.43035433877	0
11	218	41.63035433877	0
11	219	41.83035433877	0
11	220	42.03035433877	0
11	221	42.23035433877	0
11	222	42.43035433877	0
11	223	42.63035433877	0
11	224	42.83035433877	0
11	225	43.03035433877	0
11	226	43.23035433877	0
11	227	43.43035433877	0
11	228	43.63035433877	0
11	229	43.83035433877	0
11	230	44.03035433877	0
11	231	44.23035433877	0
11	232	44.43035433877	0
11	233	44.478325960478	0
11	234	44.678325960478	0
11	235	44.878325960478	0
11	236	45.078325960478	0
11	237	45.278325960478	0
11	238	45.478325960478	0
11	239	45.678325960478	0
11	240	45.878325960478	0
11	241	46.078325960478	0
11	242	46.278325960478	0
11	243	46.478325960478	0
11	244	46.678325960478	0
11	245	46.878325960478	0
11	246	47.078325960478	0
11	247	47.164741212114	0
11	248	47.364741212114	0
11	249	47.564741212114	0
11	250	47.764741212114	0
11	251	47.964741212114	0
11	252	48.164741212114	0
11	253	48.364741212114	0
11	254	48.564741212114	0
11	255	48.764741212114	0
11	256	48.964741212114	0
11	257	49.164741212114	0
11	258	49.364741212114	0
11	259	49.564741212114	0
11	260	49.764741212114	0
11	261	49.798215635732	0
11	262	49.998215635732	0
11	263	50.198215635732	0
11	264	50.398215635732	0
11	265	50.598215635732	0
11	266	50.798215635732	0
11	267	50.998215635732	0
11	268	51.198215635732	0
11	269	51.398215635732	0
11	270	51.598215635732	0
11	271	51.798215635732	0
11	272	51.998215635732	0
11	273	52.076667204905	0
11	274	52.276667204905	0
11	275	52.476667204905	0
11	276	52.676667204905	0
11	277	52.876667204905	0
11	278	53.076667204905	0
11	279	53.276667204905	0
11	280	53.476667204905	0
11	281	53.676667204905	0
11	282	53.876667204905	0
11	283	54.076667204905	0
11	284	54.276667204905	0
11	285	54.294883332468	0
11	286	54.494883332468	0
11	287	54.694883332468	0
11	288	54.894883332468	0
11	289	55.094883332468	0
11	290	55.294883332468	0
11	291	55.494883332468	0
11	292	55.694883332468	0
11	293	55.709301239243	0
11	294	55.909301239243	0
11	295	56.109301239243	0
11	296	56.309301239243	0
11	297	56.509301239243	0
11	298	56.709301239243	0
11	299	56.909301239243	0
11	300	57.109301239243	0
11	301	57.309301239243	0
11	302	57.509301239243	0
11	303	57.709301239243	0
11	304	57.909301239243	0
11	305	58.109301239243	0
11	306	58.309301239243	0
11	307	58.509301239243	0
11	308	58.600285250934	0
11	309	58.800285250934	0
11	310	59.000285250934	0
11	311	59.200285250934	0
11	312	59.400285250934	0
11	313	59.600285250934	0
11	314	59.800285250934	0
11	315	60.000285250934	0
11	316	60.200285250934	0
11	317	60.400285250934	0
11	318	60.600285250934	0
11	319	60.800285250934	0
11	320	61.000285250934	0
11	321	61.159143397846	0
11	322	61.359143397846	0
11	323	61.559143397846	0
11	324	61.759143397846	0
11	325	61.959143397846	0
11	326	62.159143397846	0
11	327	62.336598367645	0
11	328	62.536598367645	0
11	329	62.736598367645	0
11	330	62.936598367645	0
11	331	63.136598367645	0
11	332	63.336598367645	0
11	333	63.536598367645	0
11	334	63.736598367645	0
11	335	63.890422236741	0
11	336	64.090422236741	0
11	337	64.290422236741	0
11	338	64.490422236741	0
11	339	64.690422236741	0
11	340	64.890422236741	0
11	341	65.090422236741	0
11	342	65.290422236741	0
11	343	65.38912746652	0
11	344	65.58912746652	0
11	345	65.78912746652	0
11	346	65.98912746652	0
11	347	66.18912746652	0
11	348	66.38912746652	0
11	349	66.58912746652	0
11	350	66.78912746652	0
11	351	66.98912746652	0
11	352	67.18912746652	0
11	353	67.38912746652	0
11	354	67.444903764159	0
11	355	67.644903764159	0
11	356	67.844903764159	0
11	357	68.044903764159	0
11	358	68.244903764159	0
11	359	68.444903764159	0
11	360	68.462435114942	0
11	361	68.662435114942	0
11	362	68.862435114942	0
11	363	69.062435114942	0
11	364	69.262435114942	0
11	365	69.462435114942	0
11	366	69.662435114942	0
11	367	69.862435114942	0
11	368	70.062435114942	0
11	369	70.262435114942	0
11	370	70.31159625601	0
11	371	70.51159625601	0
11	372	70.71159625601	0
11	373	70.91159625601	0
11	374	71.11159625601	0
11	375	71.31159625601	0
11	376	71.51159625601	0
11	377	71.71159625601	0
11	378	71.91159625601	0
11	379	72.11159625601	0
11	380	72.31159625601	0
11	381	72.358672957339	0
11	382	72.558672957339	0
11	383	72.758672957339	0
11	384	72.958672957339	0
11	385	73.158672957339	0
11	386	73.358672957339	0
11	387	73.558672957339	0
11	388	73.758672957339	0
11	389	73.958672957339	0
11	390	74.158672957339	0
11	391	74.301765268438	0
11	392	74.501765268438	0
11	393	74.701765268438	0
11	394	74.901765268438	0
11	395	75.101765268438	0
11	396	75.301765268438	0
11	397	75.501765268438	0
11	398	75.701765268438	0
11	399	75.901765268438	0
11	400	76.101765268438	0
11	401	76.190378495427	0
11	402	76.390378495427	0
11	403	76.590378495427	0
11	404	76.790378495427	0
11	405	76.990378495427	0
11	406	77.190378495427	0
11	407	77.390378495427	0
11	408	77.590378495427	0
11	409	77.790378495427	0
11	410	77.9390443853	0
11	411	78.1390443853	0
11	412	78.3390443853	0
11	413	78.5390443853	0
11	414	78.7390443853	0
11	415	78.9390443853	0
11	416	79.1390443853	0
11	417	79.3390443853	0
11	418	79.49206586	0
11	419	79.69206586	0
11	420	79.89206586	0
12	0	0	0
12	1	0.2	0
12	2	0.4	0
12	3	0.6	0
12	4	0.8	0
12	5	1	0
12	6	1.130717865919	0
12	7	1.330717865919	0
12	8	1.530717865919	0
12	9	1.730717865919	0
12	10	1.930717865919	0
12	11	2.130717865919	0
12	12	2.330717865919	0
12	13	2.530717865919	0
12	14	2.730717865919	0
12	15	2.930717865919	0
12	16	3.130717865919	0
12	17	3.330717865919	0
12	18	3.481451595991	0
12	19	3.681451595991	0
12	20	3.881451595991	0
12	21	4.081451595991	0
12	22	4.281451595991	0
12	23	4.481451595991	0
12	24	4.681451595991	0
12	25	4.881451595991	0
12	26	5.008957204654	0
12	27	5.208957204654	0
12	28	5.408957204654	0
12	29	5.608957204654	0
12	30	5.808957204654	0
12	31	6.008957204654	0
12	32	6.208957204654	0
12	33	6.408957204654	0
12	34	6.608957204654	0
12	35	6.808957204654	0
12	36	7.008957204654	0
12	37	7.198900638407	0
12	38	7.398900638407	0
12	39	7.541529823298	0
12	40	7.741529823298	0
12	41	7.941529823298	0
12	42	8.141529823298	0
12	43	8.341529823298	0
12	44	8.541529823298	0
12	45	8.741529823298	0
12	46	8.941529823298	0
12	47	9.141529823298	0
12	48	9.221265533912	0
12	49	9.421265533912	0
12	50	9.621265533912	0
12	51	9.821265533912	0
12	52	10.021265533912	0
12	53	10.221265533912	0
12	54	10.421265533912	0
12	55	10.621265533912	0
12	56	10.821265533912	0
12	57	11.021265533912	0
12	58	11.179507123803	0
12	59	11.379507123803	0
12	60	11.579507123803	0
12	61	11.779507123803	0
12	62	11.979507123803	0
12	63	12.179507123803	0
12	64	12.379507123803	0
12	65	12.579507123803	0
12	66	12.721852612635	0
12	67	12.921852612635	0
12	68	13.121852612635	0
12	69	13.321852612635	0
12	70	13.521852612635	0
12	71	13.721852612635	0
12	72	13.921852612635	0
12	73	14.121852612635	0
12	74	14.321852612635	0
12	75	14.521852612635	0
12	76	14.721852612635	0
12	77	14.921852612635	0
12	78	15.121852612635	0
12	79	15.157839381767	0
12	80	15.357839381767	0
12	81	15.557839381767	0
12	82	15.757839381767	0
12	83	15.957839381767	0
12	84	16.157839381767	0
12	85	16.357839381767	0
12	86	16.557839381767	0
12	87	16.757839381767	0
12	88	16.913518779415	0
12	89	17.113518779415	0
12	90	17.313518779415	0
12	91	17.513518779415	0
12	92	17.713518779415	0
12	93	17.913518779415	0
12	94	18.113518779415	0
12	95	18.270944606431	0
12	96	18.470944606431	0
12	97	18.670944606431	0
12	98	18.870944606431	0
12	99	19.070944606431	0
12	100	19.270944606431	0
12	101	19.470944606431	0
12	102	19.670944606431	0
12	103	19.870944606431	0
12	104	20.070944606431	0
12	105	20.270944606431	0
12	106	20.470944606431	0
12	107	20.670944606431	0
12	108	20.870944606431	0
12	109	21.070944606431	0
12	110	21.144183387406	0
12	111	21.344183387406	0
12	112	21.544183387406	0
12	113	21.744183387406	0
12	114	21.944183387406	0
12	115	22.144183387406	0
12	116	22.344183387406	0
12	117	22.544183387406	0
12	118	22.744183387406	0
12	119	22.944183387406	0
12	120	23.100886128228	0
12	121	23.300886128228	0
12	122	23.500886128228	0
12	123	23.700886128228	0
12	124	23.900886128228	0
12	125	24.100886128228	0
12	126	24.300886128228	0
12	127	24.500886128228	0
12	128	24.700886128228	0
12	129	24.900886128228	0
12	130	25.042445803991	0
12	131	25.242445803991	0
12	132	25.442445803991	0
12	133	25.642445803991	0
12	134	25.842445803991	0
12	135	26.042445803991	0
12	136	26.242445803991	0
12	137	26.299568702183	0
12	138	26.499568702183	0
12	139	26.699568702183	0
12	140	26.899568702183	0
12	141	27.099568702183	0
12	142	27.299568702183	0
12	143	27.499568702183	0
12	144	27.672838990087	0
12	145	27.872838990087	0
12	146	28.072838990087	0
12	147	28.272838990087	0
12	148	28.472838990087	0
12	149	28.672838990087	0
12	150	28.872838990087	0
12	151	29.072838990087	0
12	152	29.272838990087	0
12	153	29.472838990087	0
12	154	29.672838990087	0
12	155	29.872838990087	0
12	156	30.072838990087	0
12	157	30.272838990087	0
12	158	30.274340793836	0
12	159	30.474340793836	0
12	160	30.674340793836	0
12	161	30.874340793836	0
12	162	31.074340793836	0
12	163	31.258309757666	0
12	164	31.458309757666	0
12	165	31.658309757666	0