version 3
run CNPF-26-20240912-08:19:27-54225
attr configname CNPF
attr datetime 20240912-08:19:27
attr datetimef 20240912-081927
attr experiment CNPF
attr inifile omnetpp.ini
attr iterationvars $0=25
attr iterationvarsd 25
attr iterationvarsf 25-
attr measurement $0=25
attr network ParcelDeliveryNetwork
attr processid 54225
attr repetition 6
attr replication #6
attr resultdir results
attr runnumber 26
attr seedset 26
config image-path ../inet/images
config network ParcelDeliveryNetwork
config description "1 drones, 30 destinations, 30 parcels, "
config *.numdrones 1
config **.drone*.mobility.typename DroneNetMob
config **.drone[*].mobility.ndst 25
config **.drone[*].mobility.nd 8
config **.drone[*].mobility.npar 30
config **.drone[*].mobility.initFromDisplayString false
config **.drone[*].mobility.changeInterval "truncnormal(2s, 0.5s)"
config **.drone[*].mobility.angleDelta "normal(0deg, 30deg)"
config **.drone[*].mobility.speed 10mps
config **.drone[*].mobility.remainingBattery 480
config **.drone[*].mobility.weightCapacity 100
config **.drone[*].mobility.parcelSelectionMethod 0
config **.drone[*].mobility.initialX 0m
config **.drone[*].mobility.initialY 0m
config **.drone[*].mobility.initialZ 0m
config repeat 10
config sim-time-limit 80second
config **.constraintAreaMinX 0m
config **.constraintAreaMinY 0m
config **.constraintAreaMinZ 0m
config **.constraintAreaMaxX 600m
config **.constraintAreaMaxY 400m
config **.constraintAreaMaxZ 0m
config **.updateInterval 0.2s

vector 0 ParcelDeliveryNetwork.gcs.wlan[0].mac.dcf frameSequenceActive:vector ETV
attr autoWarmupFilter false
attr interpolationmode sample-hold
attr recordingmode vector
attr source warmup(count(frameSequenceStarted)-count(frameSequenceFinished))
attr title "frame sequence active"
vector 1 ParcelDeliveryNetwork.gcs.wlan[0].mac.dcf.channelAccess.pendingQueue queueLength:vector ETV
attr autoWarmupFilter false
attr interpolationmode sample-hold
attr recordingmode vector
attr source "warmup(atomic(constant0(packetPushEnded) + count(packetPushStarted) - count(packetPulled) - count(packetRemoved) - count(packetDropped)))"
attr title "queue length"
attr unit pk
vector 2 ParcelDeliveryNetwork.gcs.wlan[0].mac.dcf.channelAccess.pendingQueue queueBitLength:vector ETV
attr autoWarmupFilter false
attr interpolationmode sample-hold
attr recordingmode vector
attr source "warmup(atomic(constant0(packetPushEnded) + sum(packetLength(packetPushStarted)) - sum(packetLength(packetPulled)) - sum(packetLength(packetRemoved)) - sum(packetLength(packetDropped))))"
attr title "queue bit length"
attr unit b
vector 3 ParcelDeliveryNetwork.gcs.wlan[0].mac.dcf.channelAccess.inProgressFrames queueLength:vector ETV
attr autoWarmupFilter false
attr interpolationmode sample-hold
attr recordingmode vector
attr source "warmup(count(packetEnqueued) - count(packetDequeued))"
attr title "queue length"
vector 4 ParcelDeliveryNetwork.gcs.wlan[0].mac.dcf.channelAccess.contention backoffActive:vector ETV
attr autoWarmupFilter false
attr interpolationmode sample-hold
attr recordingmode vector
attr source warmup(count(backoffStarted)-count(backoffStopped))
attr title "backoff active"
vector 5 ParcelDeliveryNetwork.gcs.udp passedUpPk:vector(count) ETV
attr interpolationmode none
attr recordingmode vector(count)
attr source packetSentToUpper
attr title "packets passed up, count"
vector 6 ParcelDeliveryNetwork.gcs.udp droppedPkWrongPort:vector(count) ETV
attr interpolationmode none
attr recordingmode vector(count)
attr source packetDropReasonIsNoPortFound(packetDropped)
attr title "packets dropped (wrong port), count"
vector 7 ParcelDeliveryNetwork.gcs.udp droppedPkBadChecksum:vector(count) ETV
attr interpolationmode none
attr recordingmode vector(count)
attr source packetDropReasonIsIncorrectlyReceived(packetDropped)
attr title "packets dropped (checksum error), count"
vector 8 ParcelDeliveryNetwork.gcs.wlan[0].radio radioMode:vector ETV
attr interpolationmode sample-hold
attr recordingmode vector
attr source radioModeChanged
attr title "Radio mode"
vector 9 ParcelDeliveryNetwork.gcs.wlan[0].radio radioChannel:vector ETV
attr interpolationmode sample-hold
attr recordingmode vector
attr source radioChannelChanged
attr title "Radio channel"
vector 10 ParcelDeliveryNetwork.drone[0] coordX:vector ETV
attr interpolationmode linear
attr recordingmode vector
attr source xCoord(mobilityPos(mobilityStateChanged))
attr title "coord X"
vector 11 ParcelDeliveryNetwork.drone[0] coordY:vector ETV
attr interpolationmode linear
attr recordingmode vector
attr source yCoord(mobilityPos(mobilityStateChanged))
attr title "coord Y"
vector 12 ParcelDeliveryNetwork.drone[0] coordZ:vector ETV
attr interpolationmode linear
attr recordingmode vector
attr source zCoord(mobilityPos(mobilityStateChanged))
attr title "coord Z"
vector 13 ParcelDeliveryNetwork.gcs.wlan[0].radio receptionState:vector ETV
attr interpolationmode sample-hold
attr recordingmode vector
attr source receptionStateChanged
attr title "Radio reception state"
vector 14 ParcelDeliveryNetwork.gcs.wlan[0].mac.dcf.channelAccess.contention stateChanged:vector ETV
attr enum IDLE,DEFER,IFS_AND_BACKOFF
attr interpolationmode none
attr recordingmode vector
attr title "contention state changed"
attr type enum
vector 15 ParcelDeliveryNetwork.gcs.wlan[0].mac.dcf.recoveryProcedure contentionWindowChanged:vector ETV
attr interpolationmode sample-hold
attr recordingmode vector
attr title "contention window"
0	0	0	0
0	0	0	0
1	0	0	0
1	0	0	0
1	0	0	0
1	0	0	0
1	0	0	0
2	0	0	0
2	0	0	0
2	0	0	0
2	0	0	0
2	0	0	0
3	0	0	0
3	0	0	0
4	0	0	0
4	0	0	0
5	0	0	0
6	0	0	0
7	0	0	0
8	0	0	0
8	0	0	0
8	0	0	2
9	0	0	0
10	0	0	0
10	1	0.2	0
10	2	0.4	0
10	3	0.6	0
10	4	0.8	0
10	5	1	0
10	6	1.2	0
10	7	1.203673753454	0
10	8	1.403673753454	0
10	9	1.603673753454	0
10	10	1.803673753454	0
10	11	2.003673753454	0
10	12	2.203673753454	0
10	13	2.403673753454	0
10	14	2.603673753454	0
10	15	2.803673753454	0
10	16	3.003673753454	0
10	17	3.203673753454	0
10	18	3.403673753454	0
10	19	3.603673753454	0
10	20	3.803673753454	0
10	21	3.919621762207	0
10	22	4.119621762207	0
10	23	4.319621762207	0
10	24	4.519621762207	0
10	25	4.719621762207	0
10	26	4.919621762207	0
10	27	5.119621762207	0
10	28	5.319621762207	0
10	29	5.519621762207	0
10	30	5.719621762207	0
10	31	5.919621762207	0
10	32	6.119621762207	0
10	33	6.319621762207	0
10	34	6.519621762207	0
10	35	6.704713146098	0
10	36	6.904713146098	0
10	37	7.104713146098	0
10	38	7.304713146098	0
10	39	7.504713146098	0
10	40	7.704713146098	0
10	41	7.904713146098	0
10	42	8.104713146098	0
10	43	8.304713146098	0
10	44	8.504713146098	0
10	45	8.704713146098	0
10	46	8.75295273234	0
10	47	8.95295273234	0
10	48	9.15295273234	0
10	49	9.35295273234	0
10	50	9.55295273234	0
10	51	9.75295273234	0
10	52	9.95295273234	0
10	53	10.15295273234	0
10	54	10.35295273234	0
10	55	10.55295273234	0
10	56	10.75295273234	0
10	57	10.75490648941	0
10	58	10.95490648941	0
10	59	11.15490648941	0
10	60	11.35490648941	0
10	61	11.55490648941	0
10	62	11.75490648941	0
10	63	11.95490648941	0
10	64	12.15490648941	0
10	65	12.35490648941	0
10	66	12.55490648941	0
10	67	12.75490648941	0
10	68	12.95490648941	0
10	69	12.986907775556	0
10	70	13.186907775556	0
10	71	13.386907775556	0
10	72	13.586907775556	0
10	73	13.786907775556	0
10	74	13.986907775556	0
10	75	14.186907775556	0
10	76	14.365280928612	0
10	77	14.565280928612	0
10	78	14.765280928612	0
10	79	14.965280928612	0
10	80	15.165280928612	0
10	81	15.365280928612	0
10	82	15.565280928612	0
10	83	15.765280928612	0
10	84	15.965280928612	0
10	85	16.115274879359	0
10	86	16.315274879359	0
10	87	16.515274879359	0
10	88	16.715274879359	0
10	89	16.915274879359	0
10	90	17.115274879359	0
10	91	17.315274879359	0
10	92	17.515274879359	0
10	93	17.715274879359	0
10	94	17.906163724069	0
10	95	18.106163724069	0
10	96	18.306163724069	0
10	97	18.506163724069	0
10	98	18.706163724069	0
10	99	18.906163724069	0
10	100	19.106163724069	0
10	101	19.306163724069	0
10	102	19.506163724069	0
10	103	19.706163724069	0
10	104	19.906163724069	0
10	105	20.050635550021	0
10	106	20.250635550021	0
10	107	20.450635550021	0
10	108	20.650635550021	0
10	109	20.850635550021	0
10	110	21.050635550021	0
10	111	21.250635550021	0
10	112	21.450635550021	0
10	113	21.650635550021	0
10	114	21.850635550021	0
10	115	22.050635550021	0
10	116	22.250635550021	0
10	117	22.450635550021	0
10	118	22.457838472875	0
10	119	22.657838472875	0
10	120	22.857838472875	0
10	121	23.057838472875	0
10	122	23.257838472875	0
10	123	23.457838472875	0
10	124	23.657838472875	0
10	125	23.707019309006	0
10	126	23.907019309006	0
10	127	24.107019309006	0
10	128	24.307019309006	0
10	129	24.507019309006	0
10	130	24.707019309006	0
10	131	24.907019309006	0
10	132	25.107019309006	0
10	133	25.307019309006	0
10	134	25.507019309006	0
10	135	25.707019309006	0
10	136	25.907019309006	0
10	137	26.0049598824	0
10	138	26.2049598824	0
10	139	26.4049598824	0
10	140	26.6049598824	0
10	141	26.8049598824	0
10	142	27.0049598824	0
10	143	27.2049598824	0
10	144	27.4049598824	0
10	145	27.6049598824	0
10	146	27.790089189811	0
10	147	27.990089189811	0
10	148	28.190089189811	0
10	149	28.390089189811	0
10	150	28.590089189811	0
10	151	28.790089189811	0
10	152	28.990089189811	0
10	153	29.190089189811	0
10	154	29.390089189811	0
10	155	29.590089189811	0
10	156	29.790089189811	0
10	157	29.990089189811	0
10	158	30.190089189811	0
10	159	30.310957547064	0
10	160	30.510957547064	0
10	161	30.710957547064	0
10	162	30.910957547064	0
10	163	31.110957547064	0
10	164	31.310957547064	0
10	165	31.510957547064	0
10	166	31.710957547064	0
10	167	31.910957547064	0
10	168	32.110957547064	0
10	169	32.310957547064	0
10	170	32.510957547064	0
10	171	32.710957547064	0
10	172	32.910957547064	0
10	173	33.110957547064	0
10	174	33.310957547064	0
10	175	33.388716437983	0
10	176	33.588716437983	0
10	177	33.788716437983	0
10	178	33.988716437983	0
10	179	34.188716437983	0
10	180	34.388716437983	0
10	181	34.588716437983	0
10	182	34.788716437983	0
10	183	34.988716437983	0
10	184	35.188716437983	0
10	185	35.388716437983	0
10	186	35.588716437983	0
10	187	35.788716437983	0
10	188	35.792629855714	0
10	189	35.992629855714	0
10	190	36.192629855714	0
10	191	36.392629855714	0
10	192	36.592629855714	0
10	193	36.792629855714	0
10	194	36.992629855714	0
10	195	37.192629855714	0
10	196	37.392629855714	0
10	197	37.592629855714	0
10	198	37.66945069454	0
10	199	37.86945069454	0
10	200	38.06945069454	0
10	201	38.26945069454	0
10	202	38.46945069454	0
10	203	38.66945069454	0
10	204	38.86945069454	0
10	205	39.04948691493	0
10	206	39.24948691493	0
10	207	39.44948691493	0
10	208	39.64948691493	0
10	209	39.84948691493	0
10	210	40.04948691493	0
10	211	40.24948691493	0
10	212	40.44948691493	0
10	213	40.64948691493	0
10	214	40.680619486905	0
10	215	40.880619486905	0
10	216	41.031677746847	0
10	217	41.231677746847	0
10	218	41.431677746847	0
10	219	41.631677746847	0
10	220	41.831677746847	0
10	221	42.031677746847	0
10	222	42.231677746847	0
10	223	42.431677746847	0
10	224	42.631677746847	0
10	225	42.831677746847	0
10	226	42.976431572732	0
10	227	43.176431572732	0
10	228	43.376431572732	0
10	229	43.576431572732	0
10	230	43.622059462111	0
10	231	43.822059462111	0
10	232	44.022059462111	0
10	233	44.222059462111	0
10	234	44.422059462111	0
10	235	44.622059462111	0
10	236	44.822059462111	0
10	237	44.936219429218	0
10	238	45.136219429218	0
10	239	45.336219429218	0
10	240	45.536219429218	0
10	241	45.736219429218	0
10	242	45.936219429218	0
10	243	46.136219429218	0
10	244	46.336219429218	0
10	245	46.536219429218	0
10	246	46.736219429218	0
10	247	46.936219429218	0
10	248	47.136219429218	0
10	249	47.336219429218	0
10	250	47.419553751716	0
10	251	47.619553751716	0
10	252	47.819553751716	0
10	253	48.019553751716	0
10	254	48.219553751716	0
10	255	48.419553751716	0
10	256	48.619553751716	0
10	257	48.819553751716	0
10	258	49.019553751716	0
10	259	49.219553751716	0
10	260	49.419553751716	0
10	261	49.619553751716	0
10	262	49.631046684489	0
10	263	49.831046684489	0
10	264	50.031046684489	0
10	265	50.231046684489	0
10	266	50.431046684489	0
10	267	50.631046684489	0
10	268	50.831046684489	0
10	269	51.031046684489	0
10	270	51.231046684489	0
10	271	51.431046684489	0
10	272	51.631046684489	0
10	273	51.831046684489	0
10	274	52.031046684489	0
10	275	52.222214158884	0
10	276	52.422214158884	0
10	277	52.622214158884	0
10	278	52.822214158884	0
10	279	53.022214158884	0
10	280	53.222214158884	0
10	281	53.422214158884	0
10	282	53.59996023324	0
10	283	53.79996023324	0
10	284	53.99996023324	0
10	285	54.19996023324	0
10	286	54.39996023324	0
10	287	54.59996023324	0
10	288	54.79996023324	0
10	289	54.99996023324	0
10	290	55.19996023324	0
10	291	55.39996023324	0
10	292	55.59996023324	0
10	293	55.717736614234	0
10	294	55.917736614234	0
10	295	56.117736614234	0
10	296	56.317736614234	0
10	297	56.517736614234	0
10	298	56.717736614234	0
10	299	56.917736614234	0
10	300	57.117736614234	0
10	301	57.317736614234	0
10	302	57.506391279518	0
10	303	57.706391279518	0
10	304	57.906391279518	0
10	305	58.106391279518	0
10	306	58.306391279518	0
10	307	58.506391279518	0
10	308	58.706391279518	0
10	309	58.906391279518	0
10	310	59.106391279518	0
10	311	59.306391279518	0
10	312	59.506391279518	0
10	313	59.706391279518	0
10	314	59.867277563678	0
10	315	60.067277563678	0
10	316	60.267277563678	0
10	317	60.467277563678	0
10	318	60.667277563678	0
10	319	60.867277563678	0
10	320	61.067277563678	0
10	321	61.267277563678	0
10	322	61.467277563678	0
10	323	61.667277563678	0
10	324	61.867277563678	0
10	325	61.90576942511	0
10	326	62.10576942511	0
10	327	62.30576942511	0
10	328	62.50576942511	0
10	329	62.70576942511	0
10	330	62.90576942511	0
10	331	63.10576942511	0
10	332	63.30576942511	0
10	333	63.50576942511	0
10	334	63.537601819706	0
10	335	63.737601819706	0
10	336	63.937601819706	0
10	337	64.137601819706	0
10	338	64.337601819706	0
10	339	64.537601819706	0
10	340	64.737601819706	0
10	341	64.937601819706	0
10	342	65.137601819706	0
10	343	65.337601819706	0
10	344	65.379705614998	0
10	345	65.579705614998	0
10	346	65.779705614998	0
10	347	65.979705614998	0
10	348	66.179705614998	0
10	349	66.379705614998	0
10	350	66.579705614998	0
10	351	66.779705614998	0
10	352	66.979705614998	0
10	353	67.179705614998	0
10	354	67.379705614998	0
10	355	67.579705614998	0
10	356	67.775396483033	0
10	357	67.975396483033	0
10	358	68.175396483033	0
10	359	68.375396483033	0
10	360	68.575396483033	0
10	361	68.775396483033	0
10	362	68.975396483033	0
10	363	69.175396483033	0
10	364	69.375396483033	0
10	365	69.575396483033	0
10	366	69.775396483033	0
10	367	69.947562317426	0
10	368	70.147562317426	0
10	369	70.347562317426	0
10	370	70.547562317426	0
10	371	70.747562317426	0
10	372	70.947562317426	0
10	373	71.147562317426	0
10	374	71.347562317426	0
10	375	71.547562317426	0
10	376	71.747562317426	0
10	377	71.843432427436	0
10	378	72.043432427436	0
10	379	72.243432427436	0
10	380	72.443432427436	0
10	381	72.643432427436	0
10	382	72.843432427436	0
10	383	73.043432427436	0
10	384	73.243432427436	0
10	385	73.443432427436	0
10	386	73.643432427436	0
10	387	73.843432427436	0
10	388	74.043432427436	0
10	389	74.243432427436	0
10	390	74.31525454068	0
10	391	74.51525454068	0
10	392	74.71525454068	0
10	393	74.91525454068	0
10	394	75.11525454068	0
10	395	75.31525454068	0
10	396	75.51525454068	0
10	397	75.71525454068	0
10	398	75.870883843513	0
10	399	76.070883843513	0
10	400	76.270883843513	0
10	401	76.470883843513	0
10	402	76.670883843513	0
10	403	76.870883843513	0
10	404	77.070883843513	0
10	405	77.270883843513	0
10	406	77.470883843513	0
10	407	77.670883843513	0
10	408	77.870883843513	0
10	409	78.070883843513	0
10	410	78.19851393815	0
10	411	78.39851393815	0
10	412	78.59851393815	0
10	413	78.79851393815	0
10	414	78.99851393815	0
10	415	79.19851393815	0
10	416	79.39851393815	0
10	417	79.59851393815	0
10	418	79.79851393815	0
10	419	79.99851393815	0
11	0	0	0
11	1	0.2	0
11	2	0.4	0
11	3	0.6	0
11	4	0.8	0
11	5	1	0
11	6	1.2	0
11	7	1.203673753454	0
11	8	1.403673753454	0
11	9	1.603673753454	0
11	10	1.803673753454	0
11	11	2.003673753454	0
11	12	2.203673753454	0
11	13	2.403673753454	0
11	14	2.603673753454	0
11	15	2.803673753454	0
11	16	3.003673753454	0
11	17	3.203673753454	0
11	18	3.403673753454	0
11	19	3.603673753454	0
11	20	3.803673753454	0
11	21	3.919621762207	0
11	22	4.119621762207	0
11	23	4.319621762207	0
11	24	4.519621762207	0
11	25	4.719621762207	0
11	26	4.919621762207	0
11	27	5.119621762207	0
11	28	5.319621762207	0
11	29	5.519621762207	0
11	30	5.719621762207	0
11	31	5.919621762207	0
11	32	6.119621762207	0
11	33	6.319621762207	0
11	34	6.519621762207	0
11	35	6.704713146098	0
11	36	6.904713146098	0
11	37	7.104713146098	0
11	38	7.304713146098	0
11	39	7.504713146098	0
11	40	7.704713146098	0
11	41	7.904713146098	0
11	42	8.104713146098	0
11	43	8.304713146098	0
11	44	8.504713146098	0
11	45	8.704713146098	0
11	46	8.75295273234	0
11	47	8.95295273234	0
11	48	9.15295273234	0
11	49	9.35295273234	0
11	50	9.55295273234	0
11	51	9.75295273234	0
11	52	9.95295273234	0
11	53	10.15295273234	0
11	54	10.35295273234	0
11	55	10.55295273234	0
11	56	10.75295273234	0
11	57	10.75490648941	0
11	58	10.95490648941	0
11	59	11.15490648941	0
11	60	11.35490648941	0
11	61	11.55490648941	0
11	62	11.75490648941	0
11	63	11.95490648941	0
11	64	12.15490648941	0
11	65	12.35490648941	0
11	66	12.55490648941	0
11	67	12.75490648941	0
11	68	12.95490648941	0
11	69	12.986907775556	0
11	70	13.186907775556	0
11	71	13.386907775556	0
11	72	13.586907775556	0
11	73	13.786907775556	0
11	74	13.986907775556	0
11	75	14.186907775556	0
11	76	14.365280928612	0
11	77	14.565280928612	0
11	78	14.765280928612	0
11	79	14.965280928612	0
11	80	15.165280928612	0
11	81	15.365280928612	0
11	82	15.565280928612	0
11	83	15.765280928612	0
11	84	15.965280928612	0
11	85	16.115274879359	0
11	86	16.315274879359	0
11	87	16.515274879359	0
11	88	16.715274879359	0
11	89	16.915274879359	0
11	90	17.115274879359	0
11	91	17.315274879359	0
11	92	17.515274879359	0
11	93	17.715274879359	0
11	94	17.906163724069	0
11	95	18.106163724069	0
11	96	18.306163724069	0
11	97	18.506163724069	0
11	98	18.706163724069	0
11	99	18.906163724069	0
11	100	19.106163724069	0
11	101	19.306163724069	0
11	102	19.506163724069	0
11	103	19.706163724069	0
11	104	19.906163724069	0
11	105	20.050635550021	0
11	106	20.250635550021	0
11	107	20.450635550021	0
11	108	20.650635550021	0
11	109	20.850635550021	0
11	110	21.050635550021	0
11	111	21.250635550021	0
11	112	21.450635550021	0
11	113	21.650635550021	0
11	114	21.850635550021	0
11	115	22.050635550021	0
11	116	22.250635550021	0
11	117	22.450635550021	0
11	118	22.457838472875	0
11	119	22.657838472875	0
11	120	22.857838472875	0
11	121	23.057838472875	0
11	122	23.257838472875	0
11	123	23.457838472875	0
11	124	23.657838472875	0
11	125	23.707019309006	0
11	126	23.907019309006	0
11	127	24.107019309006	0
11	128	24.307019309006	0
11	129	24.507019309006	0
11	130	24.707019309006	0
11	131	24.907019309006	0
11	132	25.107019309006	0
11	133	25.307019309006	0
11	134	25.507019309006	0
11	135	25.707019309006	0
11	136	25.907019309006	0
11	137	26.0049598824	0
11	138	26.2049598824	0
11	139	26.4049598824	0
11	140	26.6049598824	0
11	141	26.8049598824	0
11	142	27.0049598824	0
11	143	27.2049598824	0
11	144	27.4049598824	0
11	145	27.6049598824	0
11	146	27.790089189811	0
11	147	27.990089189811	0
11	148	28.190089189811	0
11	149	28.390089189811	0
11	150	28.590089189811	0
11	151	28.790089189811	0
11	152	28.990089189811	0
11	153	29.190089189811	0
11	154	29.390089189811	0
11	155	29.590089189811	0
11	156	29.790089189811	0
11	157	29.990089189811	0
11	158	30.190089189811	0
11	159	30.310957547064	0
11	160	30.510957547064	0
11	161	30.710957547064	0
11	162	30.910957547064	0
11	163	31.110957547064	0
11	164	31.310957547064	0
11	165	31.510957547064	0
11	166	31.710957547064	0
11	167	31.910957547064	0
11	168	32.110957547064	0
11	169	32.310957547064	0
11	170	32.510957547064	0
11	171	32.710957547064	0
11	172	32.910957547064	0
11	173	33.110957547064	0
11	174	33.310957547064	0
11	175	33.388716437983	0
11	176	33.588716437983	0
11	177	33.788716437983	0
11	178	33.988716437983	0
11	179	34.188716437983	0
11	180	34.388716437983	0
11	181	34.588716437983	0
11	182	34.788716437983	0
11	183	34.988716437983	0
11	184	35.188716437983	0
11	185	35.388716437983	0
11	186	35.588716437983	0
11	187	35.788716437983	0
11	188	35.792629855714	0
11	189	35.992629855714	0
11	190	36.192629855714	0
11	191	36.392629855714	0
11	192	36.592629855714	0
11	193	36.792629855714	0
11	194	36.992629855714	0
11	195	37.192629855714	0
11	196	37.392629855714	0
11	197	37.592629855714	0
11	198	37.66945069454	0
11	199	37.86945069454	0
11	200	38.06945069454	0
11	201	38.26945069454	0
11	202	38.46945069454	0
11	203	38.66945069454	0
11	204	38.86945069454	0
11	205	39.04948691493	0
11	206	39.24948691493	0
11	207	39.44948691493	0
11	208	39.64948691493	0
11	209	39.84948691493	0
11	210	40.04948691493	0
11	211	40.24948691493	0
11	212	40.44948691493	0
11	213	40.64948691493	0
11	214	40.680619486905	0
11	215	40.880619486905	0
11	216	41.031677746847	0
11	217	41.231677746847	0
11	218	41.431677746847	0
11	219	41.631677746847	0
11	220	41.831677746847	0
11	221	42.031677746847	0
11	222	42.231677746847	0
11	223	42.431677746847	0
11	224	42.631677746847	0
11	225	42.831677746847	0
11	226	42.976431572732	0
11	227	43.176431572732	0
11	228	43.376431572732	0
11	229	43.576431572732	0
11	230	43.622059462111	0
11	231	43.822059462111	0
11	232	44.022059462111	0
11	233	44.222059462111	0
11	234	44.422059462111	0
11	235	44.622059462111	0
11	236	44.822059462111	0
11	237	44.936219429218	0
11	238	45.136219429218	0
11	239	45.336219429218	0
11	240	45.536219429218	0
11	241	45.736219429218	0
11	242	45.936219429218	0
11	243	46.136219429218	0
11	244	46.336219429218	0
11	245	46.536219429218	0
11	246	46.736219429218	0
11	247	46.936219429218	0
11	248	47.136219429218	0
11	249	47.336219429218	0
11	250	47.419553751716	0
11	251	47.619553751716	0
11	252	47.819553751716	0
11	253	48.019553751716	0
11	254	48.219553751716	0
11	255	48.419553751716	0
11	256	48.619553751716	0
11	257	48.819553751716	0
11	258	49.019553751716	0
11	259	49.219553751716	0
11	260	49.419553751716	0
11	261	49.619553751716	0
11	262	49.631046684489	0
11	263	49.831046684489	0
11	264	50.031046684489	0
11	265	50.231046684489	0
11	266	50.431046684489	0
11	267	50.631046684489	0
11	268	50.831046684489	0
11	269	51.031046684489	0
11	270	51.231046684489	0
11	271	51.431046684489	0
11	272	51.631046684489	0
11	273	51.831046684489	0
11	274	52.031046684489	0
11	275	52.222214158884	0
11	276	52.422214158884	0
11	277	52.622214158884	0
11	278	52.822214158884	0
11	279	53.022214158884	0
11	280	53.222214158884	0
11	281	53.422214158884	0
11	282	53.59996023324	0
11	283	53.79996023324	0
11	284	53.99996023324	0
11	285	54.19996023324	0
11	286	54.39996023324	0
11	287	54.59996023324	0
11	288	54.79996023324	0
11	289	54.99996023324	0
11	290	55.19996023324	0
11	291	55.39996023324	0
11	292	55.59996023324	0
11	293	55.717736614234	0
11	294	55.917736614234	0
11	295	56.117736614234	0
11	296	56.317736614234	0
11	297	56.517736614234	0
11	298	56.717736614234	0
11	299	56.917736614234	0
11	300	57.117736614234	0
11	301	57.317736614234	0
11	302	57.506391279518	0
11	303	57.706391279518	0
11	304	57.906391279518	0
11	305	58.106391279518	0
11	306	58.306391279518	0
11	307	58.506391279518	0
11	308	58.706391279518	0
11	309	58.906391279518	0
11	310	59.106391279518	0
11	311	59.306391279518	0
11	312	59.506391279518	0
11	313	59.706391279518	0
11	314	59.867277563678	0
11	315	60.067277563678	0
11	316	60.267277563678	0
11	317	60.467277563678	0
11	318	60.667277563678	0
11	319	60.867277563678	0
11	320	61.067277563678	0
11	321	61.267277563678	0
11	322	61.467277563678	0
11	323	61.667277563678	0
11	324	61.867277563678	0
11	325	61.90576942511	0
11	326	62.10576942511	0
11	327	62.30576942511	0
11	328	62.50576942511	0
11	329	62.70576942511	0
11	330	62.90576942511	0
11	331	63.10576942511	0
11	332	63.30576942511	0
11	333	63.50576942511	0
11	334	63.537601819706	0
11	335	63.737601819706	0
11	336	63.937601819706	0
11	337	64.137601819706	0
11	338	64.337601819706	0
11	339	64.537601819706	0
11	340	64.737601819706	0
11	341	64.937601819706	0
11	342	65.137601819706	0
11	343	65.337601819706	0
11	344	65.379705614998	0
11	345	65.579705614998	0
11	346	65.779705614998	0
11	347	65.979705614998	0
11	348	66.179705614998	0
11	349	66.379705614998	0
11	350	66.579705614998	0
11	351	66.779705614998	0
11	352	66.979705614998	0
11	353	67.179705614998	0
11	354	67.379705614998	0
11	355	67.579705614998	0
11	356	67.775396483033	0
11	357	67.975396483033	0
11	358	68.175396483033	0
11	359	68.375396483033	0
11	360	68.575396483033	0
11	361	68.775396483033	0
11	362	68.975396483033	0
11	363	69.175396483033	0
11	364	69.375396483033	0
11	365	69.575396483033	0
11	366	69.775396483033	0
11	367	69.947562317426	0
11	368	70.147562317426	0
11	369	70.347562317426	0
11	370	70.547562317426	0
11	371	70.747562317426	0
11	372	70.947562317426	0
11	373	71.147562317426	0
11	374	71.347562317426	0
11	375	71.547562317426	0
11	376	71.747562317426	0
11	377	71.843432427436	0
11	378	72.043432427436	0
11	379	72.243432427436	0
11	380	72.443432427436	0
11	381	72.643432427436	0
11	382	72.843432427436	0
11	383	73.043432427436	0
11	384	73.243432427436	0
11	385	73.443432427436	0
11	386	73.643432427436	0
11	387	73.843432427436	0
11	388	74.043432427436	0
11	389	74.243432427436	0
11	390	74.31525454068	0
11	391	74.51525454068	0
11	392	74.71525454068	0
11	393	74.91525454068	0
11	394	75.11525454068	0
11	395	75.31525454068	0
11	396	75.51525454068	0
11	397	75.71525454068	0
11	398	75.870883843513	0
11	399	76.070883843513	0
11	400	76.270883843513	0
11	401	76.470883843513	0
11	402	76.670883843513	0
11	403	76.870883843513	0
11	404	77.070883843513	0
11	405	77.270883843513	0
11	406	77.470883843513	0
11	407	77.670883843513	0
11	408	77.870883843513	0
11	409	78.070883843513	0
11	410	78.19851393815	0
11	411	78.39851393815	0
11	412	78.59851393815	0
11	413	78.79851393815	0
11	414	78.99851393815	0
11	415	79.19851393815	0
11	416	79.39851393815	0
11	417	79.59851393815	0
11	418	79.79851393815	0
11	419	79.99851393815	0
12	0	0	0
12	1	0.2	0
12	2	0.4	0
12	3	0.6	0
12	4	0.8	0
12	5	1	0
12	6	1.2	0
12	7	1.203673753454	0
12	8	1.403673753454	0
12	9	1.603673753454	0
12	10	1.803673753454	0
12	11	2.003673753454	0
12	12	2.203673753454	0
12	13	2.403673753454	0
12	14	2.603673753454	0
12	15	2.803673753454	0
12	16	3.003673753454	0
12	17	3.203673753454	0
12	18	3.403673753454	0
12	19	3.603673753454	0
12	20	3.803673753454	0
12	21	3.919621762207	0
12	22	4.119621762207	0
12	23	4.319621762207	0
12	24	4.519621762207	0
12	25	4.719621762207	0
12	26	4.919621762207	0
12	27	5.119621762207	0
12	28	5.319621762207	0
12	29	5.519621762207	0
12	30	5.719621762207	0
12	31	5.919621762207	0
12	32	6.119621762207	0
12	33	6.319621762207	0
12	34	6.519621762207	0
12	35	6.704713146098	0
12	36	6.904713146098	0
12	37	7.104713146098	0
12	38	7.304713146098	0
12	39	7.504713146098	0
12	40	7.704713146098	0
12	41	7.904713146098	0
12	42	8.104713146098	0
12	43	8.304713146098	0
12	44	8.504713146098	0
12	45	8.704713146098	0
12	46	8.75295273234	0
12	47	8.95295273234	0
12	48	9.15295273234	0
12	49	9.35295273234	0
12	50	9.55295273234	0
12	51	9.75295273234	0
12	52	9.95295273234	0
12	53	10.15295273234	0
12	54	10.35295273234	0
12	55	10.55295273234	0
12	56	10.75295273234	0
12	57	10.75490648941	0
12	58	10.95490648941	0
12	59	11.15490648941	0
12	60	11.35490648941	0
12	61	11.55490648941	0
12	62	11.75490648941	0
12	63	11.95490648941	0
12	64	12.15490648941	0
12	65	12.35490648941	0
12	66	12.55490648941	0
12	67	12.75490648941	0
12	68	12.95490648941	0
12	69	12.986907775556	0
12	70	13.186907775556	0
12	71	13.386907775556	0
12	72	13.586907775556	0
12	73	13.786907775556	0
12	74	13.986907775556	0
12	75	14.186907775556	0
12	76	14.365280928612	0
12	77	14.565280928612	0
12	78	14.765280928612	0
12	79	14.965280928612	0
12	80	15.165280928612	0
12	81	15.365280928612	0
12	82	15.565280928612	0
12	83	15.765280928612	0
12	84	15.965280928612	0
12	85	16.115274879359	0
12	86	16.315274879359	0
12	87	16.515274879359	0
12	88	16.715274879359	0
12	89	16.915274879359	0
12	90	17.115274879359	0
12	91	17.315274879359	0
12	92	17.515274879359	0
12	93	17.715274879359	0
12	94	17.906163724069	0
12	95	18.106163724069	0
12	96	18.306163724069	0
12	97	18.506163724069	0
12	98	18.706163724069	0
12	99	18.906163724069	0
12	100	19.106163724069	0
12	101	19.306163724069	0
12	102	19.506163724069	0
12	103	19.706163724069	0
12	104	19.906163724069	0
12	105	20.050635550021	0
12	106	20.250635550021	0
12	107	20.450635550021	0
12	108	20.650635550021	0
12	109	20.850635550021	0
12	110	21.050635550021	0
12	111	21.250635550021	0
12	112	21.450635550021	0
12	113	21.650635550021	0
12	114	21.850635550021	0
12	115	22.050635550021	0
12	116	22.250635550021	0
12	117	22.450635550021	0
12	118	22.457838472875	0
12	119	22.657838472875	0
12	120	22.857838472875	0
12	121	23.057838472875	0
12	122	23.257838472875	0
12	123	23.457838472875	0
12	124	23.657838472875	0
12	125	23.707019309006	0
12	126	23.907019309006	0
12	127	24.107019309006	0
12	128	24.307019309006	0
12	129	24.507019309006	0
12	130	24.707019309006	0
12	131	24.907019309006	0
12	132	25.107019309006	0
12	133	25.307019309006	0
12	134	25.507019309006	0
12	135	25.707019309006	0
12	136	25.907019309006	0
12	137	26.0049598824	0
12	138	26.2049598824	0
12	139	26.4049598824	0
12	140	26.6049598824	0
12	141	26.8049598824	0
12	142	27.0049598824	0
12	143	27.2049598824	0
12	144	27.4049598824	0
12	145	27.6049598824	0
12	146	27.790089189811	0
12	147	27.990089189811	0
12	148	28.190089189811	0
12	149	28.390089189811	0
12	150	28.590089189811	0
12	151	28.790089189811	0
12	152	28.990089189811	0
12	153	29.190089189811	0
12	154	29.390089189811	0
12	155	29.590089189811	0
12	156	29.790089189811	0
12	157	29.990089189811	0
12	158	30.190089189811	0
12	159	30.310957547064	0
12	160	30.510957547064	0
12	161	30.710957547064	0
12	162	30.910957547064	0
12	163	31.110957547064	0
12	164	31.310957547064	0
12	165	31.510957547064	0
12	166	31.710957547064	0
12	167	31.910957547064	0
12	168	32.110957547064	0
12	169	32.310957547064	0
12	170	32.510957547064	0
12	171	32.710957547064	0
12	172	32.910957547064	0