version 3
run CNPF-27-20240912-08:19:27-54225
attr configname CNPF
attr datetime 20240912-08:19:27
attr datetimef 20240912-081927
attr experiment CNPF
attr inifile omnetpp.ini
attr iterationvars $0=25
attr iterationvarsd 25
attr iterationvarsf 25-
attr measurement $0=25
attr network ParcelDeliveryNetwork
attr processid 54225
attr repetition 7
attr replication #7
attr resultdir results
attr runnumber 27
attr seedset 27
config image-path ../inet/images
config network ParcelDeliveryNetwork
config description "1 drones, 30 destinations, 30 parcels, "
config *.numdrones 1
config **.drone*.mobility.typename DroneNetMob
config **.drone[*].mobility.ndst 25
config **.drone[*].mobility.nd 8
config **.drone[*].mobility.npar 30
config **.drone[*].mobility.initFromDisplayString false
config **.drone[*].mobility.changeInterval "truncnormal(2s, 0.5s)"
config **.drone[*].mobility.angleDelta "normal(0deg, 30deg)"
config **.drone[*].mobility.speed 10mps
config **.drone[*].mobility.remainingBattery 480
config **.drone[*].mobility.weightCapacity 100
config **.drone[*].mobility.parcelSelectionMethod 0
config **.drone[*].mobility.initialX 0m
config **.drone[*].mobility.initialY 0m
config **.drone[*].mobility.initialZ 0m
config repeat 10
config sim-time-limit 80second
config **.constraintAreaMinX 0m
config **.constraintAreaMinY 0m
config **.constraintAreaMinZ 0m
config **.constraintAreaMaxX 600m
config **.constraintAreaMaxY 400m
config **.constraintAreaMaxZ 0m
config **.updateInterval 0.2s

vector 0 ParcelDeliveryNetwork.gcs.wlan[0].mac.dcf frameSequenceActive:vector ETV
attr autoWarmupFilter false
attr interpolationmode sample-hold
attr recordingmode vector
attr source warmup(count(frameSequenceStarted)-count(frameSequenceFinished))
attr title "frame sequence active"
vector 1 ParcelDeliveryNetwork.gcs.wlan[0].mac.dcf.channelAccess.pendingQueue queueLength:vector ETV
attr autoWarmupFilter false
attr interpolationmode sample-hold
attr recordingmode vector
attr source "warmup(atomic(constant0(packetPushEnded) + count(packetPushStarted) - count(packetPulled) - count(packetRemoved) - count(packetDropped)))"
attr title "queue length"
attr unit pk
vector 2 ParcelDeliveryNetwork.gcs.wlan[0].mac.dcf.channelAccess.pendingQueue queueBitLength:vector ETV
attr autoWarmupFilter false
attr interpolationmode sample-hold
attr recordingmode vector
attr source "warmup(atomic(constant0(packetPushEnded) + sum(packetLength(packetPushStarted)) - sum(packetLength(packetPulled)) - sum(packetLength(packetRemoved)) - sum(packetLength(packetDropped))))"
attr title "queue bit length"
attr unit b
vector 3 ParcelDeliveryNetwork.gcs.wlan[0].mac.dcf.channelAccess.inProgressFrames queueLength:vector ETV
attr autoWarmupFilter false
attr interpolationmode sample-hold
attr recordingmode vector
attr source "warmup(count(packetEnqueued) - count(packetDequeued))"
attr title "queue length"
vector 4 ParcelDeliveryNetwork.gcs.wlan[0].mac.dcf.channelAccess.contention backoffActive:vector ETV
attr autoWarmupFilter false
attr interpolationmode sample-hold
attr recordingmode vector
attr source warmup(count(backoffStarted)-count(backoffStopped))
attr title "backoff active"
vector 5 ParcelDeliveryNetwork.gcs.udp passedUpPk:vector(count) ETV
attr interpolationmode none
attr recordingmode vector(count)
attr source packetSentToUpper
attr title "packets passed up, count"
vector 6 ParcelDeliveryNetwork.gcs.udp droppedPkWrongPort:vector(count) ETV
attr interpolationmode none
attr recordingmode vector(count)
attr source packetDropReasonIsNoPortFound(packetDropped)
attr title "packets dropped (wrong port), count"
vector 7 ParcelDeliveryNetwork.gcs.udp droppedPkBadChecksum:vector(count) ETV
attr interpolationmode none
attr recordingmode vector(count)
attr source packetDropReasonIsIncorrectlyReceived(packetDropped)
attr title "packets dropped (checksum error), count"
vector 8 ParcelDeliveryNetwork.gcs.wlan[0].radio radioMode:vector ETV
attr interpolationmode sample-hold
attr recordingmode vector
attr source radioModeChanged
attr title "Radio mode"
vector 9 ParcelDeliveryNetwork.gcs.wlan[0].radio radioChannel:vector ETV
attr interpolationmode sample-hold
attr recordingmode vector
attr source radioChannelChanged
attr title "Radio channel"
vector 10 ParcelDeliveryNetwork.drone[0] coordX:vector ETV
attr interpolationmode linear
attr recordingmode vector
attr source xCoord(mobilityPos(mobilityStateChanged))
attr title "coord X"
vector 11 ParcelDeliveryNetwork.drone[0] coordY:vector ETV
attr interpolationmode linear
attr recordingmode vector
attr source yCoord(mobilityPos(mobilityStateChanged))
attr title "coord Y"
vector 12 ParcelDeliveryNetwork.drone[0] coordZ:vector ETV
attr interpolationmode linear
attr recordingmode vector
attr source zCoord(mobilityPos(mobilityStateChanged))
attr title "coord Z"
vector 13 ParcelDeliveryNetwork.gcs.wlan[0].radio receptionState:vector ETV
attr interpolationmode sample-hold
attr recordingmode vector
attr source receptionStateChanged
attr title "Radio reception state"
vector 14 ParcelDeliveryNetwork.gcs.wlan[0].mac.dcf.channelAccess.contention stateChanged:vector ETV
attr enum IDLE,DEFER,IFS_AND_BACKOFF
attr interpolationmode none
attr recordingmode vector
attr title "contention state changed"
attr type enum
vector 15 ParcelDeliveryNetwork.gcs.wlan[0].mac.dcf.recoveryProcedure contentionWindowChanged:vector ETV
attr interpolationmode sample-hold
attr recordingmode vector
attr title "contention window"
0	0	0	0
0	0	0	0
1	0	0	0
1	0	0	0
1	0	0	0
1	0	0	0
1	0	0	0
2	0	0	0
2	0	0	0
2	0	0	0
2	0	0	0
2	0	0	0
3	0	0	0
3	0	0	0
4	0	0	0
4	0	0	0
5	0	0	0
6	0	0	0
7	0	0	0
8	0	0	0
8	0	0	0
8	0	0	2
9	0	0	0
10	0	0	0
10	1	0.2	0
10	2	0.4	0
10	3	0.6	0
10	4	0.8	0
10	5	1	0
10	6	1.2	0
10	7	1.201138181127	0
10	8	1.401138181127	0
10	9	1.601138181127	0
10	10	1.801138181127	0
10	11	2.001138181127	0
10	12	2.201138181127	0
10	13	2.401138181127	0
10	14	2.448082721271	0
10	15	2.648082721271	0
10	16	2.848082721271	0
10	17	3.048082721271	0
10	18	3.248082721271	0
10	19	3.448082721271	0
10	20	3.648082721271	0
10	21	3.848082721271	0
10	22	4.048082721271	0
10	23	4.248082721271	0
10	24	4.314331434037	0
10	25	4.514331434037	0
10	26	4.714331434037	0
10	27	4.914331434037	0
10	28	5.114331434037	0
10	29	5.314331434037	0
10	30	5.514331434037	0
10	31	5.714331434037	0
10	32	5.914331434037	0
10	33	6.114331434037	0
10	34	6.314331434037	0
10	35	6.514331434037	0
10	36	6.714331434037	0
10	37	6.914331434037	0
10	38	7.068306738131	0
10	39	7.268306738131	0
10	40	7.468306738131	0
10	41	7.668306738131	0
10	42	7.868306738131	0
10	43	8.068306738131	0
10	44	8.268306738131	0
10	45	8.468306738131	0
10	46	8.668306738131	0
10	47	8.868306738131	0
10	48	9.068306738131	0
10	49	9.268306738131	0
10	50	9.468306738131	0
10	51	9.668306738131	0
10	52	9.83258524832	0
10	53	10.03258524832	0
10	54	10.23258524832	0
10	55	10.43258524832	0
10	56	10.63258524832	0
10	57	10.83258524832	0
10	58	11.03258524832	0
10	59	11.23258524832	0
10	60	11.43258524832	0
10	61	11.570428496732	0
10	62	11.770428496732	0
10	63	11.970428496732	0
10	64	12.170428496732	0
10	65	12.370428496732	0
10	66	12.570428496732	0
10	67	12.770428496732	0
10	68	12.894785001482	0
10	69	13.094785001482	0
10	70	13.294785001482	0
10	71	13.494785001482	0
10	72	13.694785001482	0
10	73	13.894785001482	0
10	74	14.094785001482	0
10	75	14.294785001482	0
10	76	14.396569587673	0
10	77	14.596569587673	0
10	78	14.796569587673	0
10	79	14.996569587673	0
10	80	15.196569587673	0
10	81	15.396569587673	0
10	82	15.596569587673	0
10	83	15.790938488939	0
10	84	15.990938488939	0
10	85	16.190938488939	0
10	86	16.390938488939	0
10	87	16.590938488939	0
10	88	16.790938488939	0
10	89	16.990938488939	0
10	90	17.190938488939	0
10	91	17.390938488939	0
10	92	17.590938488939	0
10	93	17.790938488939	0
10	94	17.990938488939	0
10	95	18.190938488939	0
10	96	18.200036630973	0
10	97	18.400036630973	0
10	98	18.600036630973	0
10	99	18.800036630973	0
10	100	19.000036630973	0
10	101	19.200036630973	0
10	102	19.400036630973	0
10	103	19.600036630973	0
10	104	19.800036630973	0
10	105	20.000036630973	0
10	106	20.200036630973	0
10	107	20.400036630973	0
10	108	20.600036630973	0
10	109	20.800036630973	0
10	110	21.000036630973	0
10	111	21.031310898012	0
10	112	21.231310898012	0
10	113	21.431310898012	0
10	114	21.631310898012	0
10	115	21.831310898012	0
10	116	22.031310898012	0
10	117	22.231310898012	0
10	118	22.402059110095	0
10	119	22.602059110095	0
10	120	22.802059110095	0
10	121	23.002059110095	0
10	122	23.202059110095	0
10	123	23.402059110095	0
10	124	23.602059110095	0
10	125	23.802059110095	0
10	126	24.002059110095	0
10	127	24.202059110095	0
10	128	24.402059110095	0
10	129	24.602059110095	0
10	130	24.723545176506	0
10	131	24.923545176506	0
10	132	25.123545176506	0
10	133	25.323545176506	0
10	134	25.523545176506	0
10	135	25.723545176506	0
10	136	25.923545176506	0
10	137	26.123545176506	0
10	138	26.323545176506	0
10	139	26.523545176506	0
10	140	26.723545176506	0
10	141	26.923545176506	0
10	142	27.123545176506	0
10	143	27.12813776773	0
10	144	27.32813776773	0
10	145	27.52813776773	0
10	146	27.72813776773	0
10	147	27.92813776773	0
10	148	28.12813776773	0
10	149	28.32813776773	0
10	150	28.52813776773	0
10	151	28.72813776773	0
10	152	28.92813776773	0
10	153	29.12813776773	0
10	154	29.260762791491	0
10	155	29.460762791491	0
10	156	29.660762791491	0
10	157	29.860762791491	0
10	158	30.060762791491	0
10	159	30.260762791491	0
10	160	30.460762791491	0
10	161	30.660762791491	0
10	162	30.860762791491	0
10	163	31.060762791491	0
10	164	31.260762791491	0
10	165	31.460762791491	0
10	166	31.660762791491	0
10	167	31.860762791491	0
10	168	32.013057948541	0
10	169	32.213057948541	0
10	170	32.413057948541	0
10	171	32.613057948541	0
10	172	32.813057948541	0
10	173	33.013057948541	0
10	174	33.213057948541	0
10	175	33.413057948541	0
10	176	33.613057948541	0
10	177	33.813057948541	0
10	178	34.013057948541	0
10	179	34.151209071556	0
10	180	34.351209071556	0
10	181	34.551209071556	0
10	182	34.751209071556	0
10	183	34.951209071556	0
10	184	35.151209071556	0
10	185	35.351209071556	0
10	186	35.551209071556	0
10	187	35.751209071556	0
10	188	35.951209071556	0
10	189	36.151209071556	0
10	190	36.351209071556	0
10	191	36.444287108118	0
10	192	36.644287108118	0
10	193	36.844287108118	0
10	194	37.044287108118	0
10	195	37.244287108118	0
10	196	37.444287108118	0
10	197	37.644287108118	0
10	198	37.844287108118	0
10	199	38.044287108118	0
10	200	38.244287108118	0
10	201	38.444287108118	0
10	202	38.457786917295	0
10	203	38.657786917295	0
10	204	38.857786917295	0
10	205	39.057786917295	0
10	206	39.257786917295	0
10	207	39.457786917295	0
10	208	39.657786917295	0
10	209	39.857786917295	0
10	210	40.057786917295	0
10	211	40.257786917295	0
10	212	40.457786917295	0
10	213	40.657786917295	0
10	214	40.857786917295	0
10	215	40.884455125317	0
10	216	41.084455125317	0
10	217	41.284455125317	0
10	218	41.484455125317	0
10	219	41.684455125317	0
10	220	41.884455125317	0
10	221	42.08349324066	0
10	222	42.28349324066	0
10	223	42.48349324066	0
10	224	42.68349324066	0
10	225	42.88349324066	0
10	226	43.08349324066	0
10	227	43.28349324066	0
10	228	43.48349324066	0
10	229	43.68349324066	0
10	230	43.869193424525	0
10	231	44.069193424525	0
10	232	44.269193424525	0
10	233	44.469193424525	0
10	234	44.669193424525	0
10	235	44.869193424525	0
10	236	45.069193424525	0
10	237	45.269193424525	0
10	238	45.469193424525	0
10	239	45.669193424525	0
10	240	45.869193424525	0
10	241	45.88516348958	0
10	242	46.08516348958	0
10	243	46.28516348958	0
10	244	46.48516348958	0
10	245	46.68516348958	0
10	246	46.88516348958	0
10	247	47.08516348958	0
10	248	47.28516348958	0
10	249	47.48516348958	0
10	250	47.68516348958	0
10	251	47.88516348958	0
10	252	48.08516348958	0
10	253	48.28516348958	0
10	254	48.48516348958	0
10	255	48.661161266998	0
10	256	48.861161266998	0
10	257	49.061161266998	0
10	258	49.261161266998	0
10	259	49.461161266998	0
10	260	49.661161266998	0
10	261	49.861161266998	0
10	262	50.061161266998	0
10	263	50.261161266998	0
10	264	50.461161266998	0
10	265	50.661161266998	0
10	266	50.783779958302	0
10	267	50.983779958302	0
10	268	51.183779958302	0
10	269	51.383779958302	0
10	270	51.583779958302	0
10	271	51.783779958302	0
10	272	51.983779958302	0
10	273	52.183779958302	0
10	274	52.251946241134	0
10	275	52.451946241134	0
10	276	52.651946241134	0
10	277	52.851946241134	0
10	278	53.051946241134	0
10	279	53.251946241134	0
10	280	53.451946241134	0
10	281	53.651946241134	0
10	282	53.736585802506	0
10	283	53.936585802506	0
10	284	54.136585802506	0
10	285	54.336585802506	0
10	286	54.536585802506	0
10	287	54.736585802506	0
10	288	54.936585802506	0
10	289	55.136585802506	0
10	290	55.188529432011	0
10	291	55.388529432011	0
10	292	55.588529432011	0
10	293	55.788529432011	0
10	294	55.988529432011	0
10	295	56.188529432011	0
10	296	56.388529432011	0
10	297	56.588529432011	0
10	298	56.788529432011	0
10	299	56.988529432011	0
10	300	57.188529432011	0
10	301	57.293383989236	0
10	302	57.493383989236	0
10	303	57.693383989236	0
10	304	57.893383989236	0
10	305	58.093383989236	0
10	306	58.293383989236	0
10	307	58.493383989236	0
10	308	58.595977916484	0
10	309	58.795977916484	0
10	310	58.995977916484	0
10	311	59.195977916484	0
10	312	59.395977916484	0
10	313	59.595977916484	0
10	314	59.795977916484	0
10	315	59.995977916484	0
10	316	60.195977916484	0
10	317	60.395977916484	0
10	318	60.595977916484	0
10	319	60.795977916484	0
10	320	60.995977916484	0
10	321	61.147420891434	0
10	322	61.347420891434	0
10	323	61.547420891434	0
10	324	61.747420891434	0
10	325	61.947420891434	0
10	326	62.147420891434	0
10	327	62.347420891434	0
10	328	62.547420891434	0
10	329	62.747420891434	0
10	330	62.947420891434	0
10	331	63.147420891434	0
10	332	63.347420891434	0
10	333	63.547420891434	0
10	334	63.747420891434	0
10	335	63.947420891434	0
10	336	64.147420891434	0
10	337	64.192203241216	0
10	338	64.392203241216	0
10	339	64.592203241216	0
10	340	64.792203241216	0
10	341	64.992203241216	0
10	342	65.192203241216	0
10	343	65.392203241216	0
10	344	65.592203241216	0
10	345	65.792203241216	0
10	346	65.992203241216	0
10	347	66.192203241216	0
10	348	66.392203241216	0
10	349	66.592203241216	0
10	350	66.792203241216	0
10	351	66.960373990377	0
10	352	67.160373990377	0
10	353	67.360373990377	0
10	354	67.560373990377	0
10	355	67.760373990377	0
10	356	67.960373990377	0
10	357	68.160373990377	0
10	358	68.360373990377	0
10	359	68.560373990377	0
10	360	68.614369917869	0
10	361	68.814369917869	0
10	362	69.014369917869	0
10	363	69.214369917869	0
10	364	69.414369917869	0
10	365	69.614369917869	0
10	366	69.814369917869	0
10	367	70.014369917869	0
10	368	70.214369917869	0
10	369	70.414369917869	0
10	370	70.614369917869	0
10	371	70.814369917869	0
10	372	71.014369917869	0
10	373	71.193300913155	0
10	374	71.393300913155	0
10	375	71.593300913155	0
10	376	71.793300913155	0
10	377	71.993300913155	0
10	378	72.193300913155	0
10	379	72.393300913155	0
10	380	72.593300913155	0
10	381	72.793300913155	0
10	382	72.993300913155	0
10	383	73.193300913155	0
10	384	73.393300913155	0
10	385	73.593300913155	0
10	386	73.663342991724	0
10	387	73.863342991724	0
10	388	74.063342991724	0
10	389	74.263342991724	0
10	390	74.463342991724	0
10	391	74.663342991724	0
10	392	74.863342991724	0
10	393	75.063342991724	0
10	394	75.263342991724	0
10	395	75.463342991724	0
10	396	75.646126466452	0
10	397	75.846126466452	0
10	398	76.046126466452	0
10	399	76.246126466452	0
10	400	76.446126466452	0
10	401	76.646126466452	0
10	402	76.846126466452	0
10	403	77.046126466452	0
10	404	77.246126466452	0
10	405	77.446126466452	0
10	406	77.646126466452	0
10	407	77.712850234887	0
10	408	77.912850234887	0
10	409	78.112850234887	0
10	410	78.312850234887	0
10	411	78.512850234887	0
10	412	78.712850234887	0
10	413	78.912850234887	0
10	414	79.112850234887	0
10	415	79.312850234887	0
10	416	79.512850234887	0
10	417	79.712850234887	0
10	418	79.912850234887	0
11	0	0	0
11	1	0.2	0
11	2	0.4	0
11	3	0.6	0
11	4	0.8	0
11	5	1	0
11	6	1.2	0
11	7	1.201138181127	0
11	8	1.401138181127	0
11	9	1.601138181127	0
11	10	1.801138181127	0
11	11	2.001138181127	0
11	12	2.201138181127	0
11	13	2.401138181127	0
11	14	2.448082721271	0
11	15	2.648082721271	0
11	16	2.848082721271	0
11	17	3.048082721271	0
11	18	3.248082721271	0
11	19	3.448082721271	0
11	20	3.648082721271	0
11	21	3.848082721271	0
11	22	4.048082721271	0
11	23	4.248082721271	0
11	24	4.314331434037	0
11	25	4.514331434037	0
11	26	4.714331434037	0
11	27	4.914331434037	0
11	28	5.114331434037	0
11	29	5.314331434037	0
11	30	5.514331434037	0
11	31	5.714331434037	0
11	32	5.914331434037	0
11	33	6.114331434037	0
11	34	6.314331434037	0
11	35	6.514331434037	0
11	36	6.714331434037	0
11	37	6.914331434037	0
11	38	7.068306738131	0
11	39	7.268306738131	0
11	40	7.468306738131	0
11	41	7.668306738131	0
11	42	7.868306738131	0
11	43	8.068306738131	0
11	44	8.268306738131	0
11	45	8.468306738131	0
11	46	8.668306738131	0
11	47	8.868306738131	0
11	48	9.068306738131	0
11	49	9.268306738131	0
11	50	9.468306738131	0
11	51	9.668306738131	0
11	52	9.83258524832	0
11	53	10.03258524832	0
11	54	10.23258524832	0
11	55	10.43258524832	0
11	56	10.63258524832	0
11	57	10.83258524832	0
11	58	11.03258524832	0
11	59	11.23258524832	0
11	60	11.43258524832	0
11	61	11.570428496732	0
11	62	11.770428496732	0
11	63	11.970428496732	0
11	64	12.170428496732	0
11	65	12.370428496732	0
11	66	12.570428496732	0
11	67	12.770428496732	0
11	68	12.894785001482	0
11	69	13.094785001482	0
11	70	13.294785001482	0
11	71	13.494785001482	0
11	72	13.694785001482	0
11	73	13.894785001482	0
11	74	14.094785001482	0
11	75	14.294785001482	0
11	76	14.396569587673	0
11	77	14.596569587673	0
11	78	14.796569587673	0
11	79	14.996569587673	0
11	80	15.196569587673	0
11	81	15.396569587673	0
11	82	15.596569587673	0
11	83	15.790938488939	0
11	84	15.990938488939	0
11	85	16.190938488939	0
11	86	16.390938488939	0
11	87	16.590938488939	0
11	88	16.790938488939	0
11	89	16.990938488939	0
11	90	17.190938488939	0
11	91	17.390938488939	0
11	92	17.590938488939	0
11	93	17.790938488939	0
11	94	17.990938488939	0
11	95	18.190938488939	0
11	96	18.200036630973	0
11	97	18.400036630973	0
11	98	18.600036630973	0
11	99	18.800036630973	0
11	100	19.000036630973	0
11	101	19.200036630973	0
11	102	19.400036630973	0
11	103	19.600036630973	0
11	104	19.800036630973	0
11	105	20.000036630973	0
11	106	20.200036630973	0
11	107	20.400036630973	0
11	108	20.600036630973	0
11	109	20.800036630973	0
11	110	21.000036630973	0
11	111	21.031310898012	0
11	112	21.231310898012	0
11	113	21.431310898012	0
11	114	21.631310898012	0
11	115	21.831310898012	0
11	116	22.031310898012	0
11	117	22.231310898012	0
11	118	22.402059110095	0
11	119	22.602059110095	0
11	120	22.802059110095	0
11	121	23.002059110095	0
11	122	23.202059110095	0
11	123	23.402059110095	0
11	124	23.602059110095	0
11	125	23.802059110095	0
11	126	24.002059110095	0
11	127	24.202059110095	0
11	128	24.402059110095	0
11	129	24.602059110095	0
11	130	24.723545176506	0
11	131	24.923545176506	0
11	132	25.123545176506	0
11	133	25.323545176506	0
11	134	25.523545176506	0
11	135	25.723545176506	0
11	136	25.923545176506	0
11	137	26.123545176506	0
11	138	26.323545176506	0
11	139	26.523545176506	0
11	140	26.723545176506	0
11	141	26.923545176506	0
11	142	27.123545176506	0
11	143	27.12813776773	0
11	144	27.32813776773	0
11	145	27.52813776773	0
11	146	27.72813776773	0
11	147	27.92813776773	0
11	148	28.12813776773	0
11	149	28.32813776773	0
11	150	28.52813776773	0
11	151	28.72813776773	0
11	152	28.92813776773	0
11	153	29.12813776773	0
11	154	29.260762791491	0
11	155	29.460762791491	0
11	156	29.660762791491	0
11	157	29.860762791491	0
11	158	30.060762791491	0
11	159	30.260762791491	0
11	160	30.460762791491	0
11	161	30.660762791491	0
11	162	30.860762791491	0
11	163	31.060762791491	0
11	164	31.260762791491	0
11	165	31.460762791491	0
11	166	31.660762791491	0
11	167	31.860762791491	0
11	168	32.013057948541	0
11	169	32.213057948541	0
11	170	32.413057948541	0
11	171	32.613057948541	0
11	172	32.813057948541	0
11	173	33.013057948541	0
11	174	33.213057948541	0
11	175	33.413057948541	0
11	176	33.613057948541	0
11	177	33.813057948541	0
11	178	34.013057948541	0
11	179	34.151209071556	0
11	180	34.351209071556	0
11	181	34.551209071556	0
11	182	34.751209071556	0
11	183	34.951209071556	0
11	184	35.151209071556	0
11	185	35.351209071556	0
11	186	35.551209071556	0
11	187	35.751209071556	0
11	188	35.951209071556	0
11	189	36.151209071556	0
11	190	36.351209071556	0
11	191	36.444287108118	0
11	192	36.644287108118	0
11	193	36.844287108118	0
11	194	37.044287108118	0
11	195	37.244287108118	0
11	196	37.444287108118	0
11	197	37.644287108118	0
11	198	37.844287108118	0
11	199	38.044287108118	0
11	200	38.244287108118	0
11	201	38.444287108118	0
11	202	38.457786917295	0
11	203	38.657786917295	0
11	204	38.857786917295	0
11	205	39.057786917295	0
11	206	39.257786917295	0
11	207	39.457786917295	0
11	208	39.657786917295	0
11	209	39.857786917295	0
11	210	40.057786917295	0
11	211	40.257786917295	0
11	212	40.457786917295	0
11	213	40.657786917295	0
11	214	40.857786917295	0
11	215	40.884455125317	0
11	216	41.084455125317	0
11	217	41.284455125317	0
11	218	41.484455125317	0
11	219	41.684455125317	0
11	220	41.884455125317	0
11	221	42.08349324066	0
11	222	42.28349324066	0
11	223	42.48349324066	0
11	224	42.68349324066	0
11	225	42.88349324066	0
11	226	43.08349324066	0
11	227	43.28349324066	0
11	228	43.48349324066	0
11	229	43.68349324066	0
11	230	43.869193424525	0
11	231	44.069193424525	0
11	232	44.269193424525	0
11	233	44.469193424525	0
11	234	44.669193424525	0
11	235	44.869193424525	0
11	236	45.069193424525	0
11	237	45.269193424525	0
11	238	45.469193424525	0
11	239	45.669193424525	0
11	240	45.869193424525	0
11	241	45.88516348958	0
11	242	46.08516348958	0
11	243	46.28516348958	0
11	244	46.48516348958	0
11	245	46.68516348958	0
11	246	46.88516348958	0
11	247	47.08516348958	0
11	248	47.28516348958	0
11	249	47.48516348958	0
11	250	47.68516348958	0
11	251	47.88516348958	0
11	252	48.08516348958	0
11	253	48.28516348958	0
11	254	48.48516348958	0
11	255	48.661161266998	0
11	256	48.861161266998	0
11	257	49.061161266998	0
11	258	49.261161266998	0
11	259	49.461161266998	0
11	260	49.661161266998	0
11	261	49.861161266998	0
11	262	50.061161266998	0
11	263	50.261161266998	0
11	264	50.461161266998	0
11	265	50.661161266998	0
11	266	50.783779958302	0
11	267	50.983779958302	0
11	268	51.183779958302	0
11	269	51.383779958302	0
11	270	51.583779958302	0
11	271	51.783779958302	0
11	272	51.983779958302	0
11	273	52.183779958302	0
11	274	52.251946241134	0
11	275	52.451946241134	0
11	276	52.651946241134	0
11	277	52.851946241134	0
11	278	53.051946241134	0
11	279	53.251946241134	0
11	280	53.451946241134	0
11	281	53.651946241134	0
11	282	53.736585802506	0
11	283	53.936585802506	0
11	284	54.136585802506	0
11	285	54.336585802506	0
11	286	54.536585802506	0
11	287	54.736585802506	0
11	288	54.936585802506	0
11	289	55.136585802506	0
11	290	55.188529432011	0
11	291	55.388529432011	0
11	292	55.588529432011	0
11	293	55.788529432011	0
11	294	55.988529432011	0
11	295	56.188529432011	0
11	296	56.388529432011	0
11	297	56.588529432011	0
11	298	56.788529432011	0
11	299	56.988529432011	0
11	300	57.188529432011	0
11	301	57.293383989236	0
11	302	57.493383989236	0
11	303	57.693383989236	0
11	304	57.893383989236	0
11	305	58.093383989236	0
11	306	58.293383989236	0
11	307	58.493383989236	0
11	308	58.595977916484	0
11	309	58.795977916484	0
11	310	58.995977916484	0
11	311	59.195977916484	0
11	312	59.395977916484	0
11	313	59.595977916484	0
11	314	59.795977916484	0
11	315	59.995977916484	0
11	316	60.195977916484	0
11	317	60.395977916484	0
11	318	60.595977916484	0
11	319	60.795977916484	0
11	320	60.995977916484	0
11	321	61.147420891434	0
11	322	61.347420891434	0
11	323	61.547420891434	0
11	324	61.747420891434	0
11	325	61.947420891434	0
11	326	62.147420891434	0
11	327	62.347420891434	0
11	328	62.547420891434	0
11	329	62.747420891434	0
11	330	62.947420891434	0
11	331	63.147420891434	0
11	332	63.347420891434	0
11	333	63.547420891434	0
11	334	63.747420891434	0
11	335	63.947420891434	0
11	336	64.147420891434	0
11	337	64.192203241216	0
11	338	64.392203241216	0
11	339	64.592203241216	0
11	340	64.792203241216	0
11	341	64.992203241216	0
11	342	65.192203241216	0
11	343	65.392203241216	0
11	344	65.592203241216	0
11	345	65.792203241216	0
11	346	65.992203241216	0
11	347	66.192203241216	0
11	348	66.392203241216	0
11	349	66.592203241216	0
11	350	66.792203241216	0
11	351	66.960373990377	0
11	352	67.160373990377	0
11	353	67.360373990377	0
11	354	67.560373990377	0
11	355	67.760373990377	0
11	356	67.960373990377	0
11	357	68.160373990377	0
11	358	68.360373990377	0
11	359	68.560373990377	0
11	360	68.614369917869	0
11	361	68.814369917869	0
11	362	69.014369917869	0
11	363	69.214369917869	0
11	364	69.414369917869	0
11	365	69.614369917869	0
11	366	69.814369917869	0
11	367	70.014369917869	0
11	368	70.214369917869	0
11	369	70.414369917869	0
11	370	70.614369917869	0
11	371	70.814369917869	0
11	372	71.014369917869	0
11	373	71.193300913155	0
11	374	71.393300913155	0
11	375	71.593300913155	0
11	376	71.793300913155	0
11	377	71.993300913155	0
11	378	72.193300913155	0
11	379	72.393300913155	0
11	380	72.593300913155	0
11	381	72.793300913155	0
11	382	72.993300913155	0
11	383	73.193300913155	0
11	384	73.393300913155	0
11	385	73.593300913155	0
11	386	73.663342991724	0
11	387	73.863342991724	0
11	388	74.063342991724	0
11	389	74.263342991724	0
11	390	74.463342991724	0
11	391	74.663342991724	0
11	392	74.863342991724	0
11	393	75.063342991724	0
11	394	75.263342991724	0
11	395	75.463342991724	0
11	396	75.646126466452	0
11	397	75.846126466452	0
11	398	76.046126466452	0
11	399	76.246126466452	0
11	400	76.446126466452	0
11	401	76.646126466452	0
11	402	76.846126466452	0
11	403	77.046126466452	0
11	404	77.246126466452	0
11	405	77.446126466452	0
11	406	77.646126466452	0
11	407	77.712850234887	0
11	408	77.912850234887	0
11	409	78.112850234887	0
11	410	78.312850234887	0
11	411	78.512850234887	0
11	412	78.712850234887	0
11	413	78.912850234887	0
11	414	79.112850234887	0
11	415	79.312850234887	0
11	416	79.512850234887	0
11	417	79.712850234887	0
11	418	79.912850234887	0
12	0	0	0
12	1	0.2	0
12	2	0.4	0
12	3	0.6	0
12	4	0.8	0
12	5	1	0
12	6	1.2	0
12	7	1.201138181127	0
12	8	1.401138181127	0
12	9	1.601138181127	0
12	10	1.801138181127	0
12	11	2.001138181127	0
12	12	2.201138181127	0
12	13	2.401138181127	0
12	14	2.448082721271	0
12	15	2.648082721271	0
12	16	2.848082721271	0
12	17	3.048082721271	0
12	18	3.248082721271	0
12	19	3.448082721271	0
12	20	3.648082721271	0
12	21	3.848082721271	0
12	22	4.048082721271	0
12	23	4.248082721271	0
12	24	4.314331434037	0
12	25	4.514331434037	0
12	26	4.714331434037	0
12	27	4.914331434037	0
12	28	5.114331434037	0
12	29	5.314331434037	0
12	30	5.514331434037	0
12	31	5.714331434037	0
12	32	5.914331434037	0
12	33	6.114331434037	0
12	34	6.314331434037	0
12	35	6.514331434037	0
12	36	6.714331434037	0
12	37	6.914331434037	0
12	38	7.068306738131	0
12	39	7.268306738131	0
12	40	7.468306738131	0
12	41	7.668306738131	0
12	42	7.868306738131	0
12	43	8.068306738131	0
12	44	8.268306738131	0
12	45	8.468306738131	0
12	46	8.668306738131	0
12	47	8.868306738131	0
12	48	9.068306738131	0
12	49	9.268306738131	0
12	50	9.468306738131	0
12	51	9.668306738131	0
12	52	9.83258524832	0
12	53	10.03258524832	0
12	54	10.23258524832	0
12	55	10.43258524832	0
12	56	10.63258524832	0
12	57	10.83258524832	0
12	58	11.03258524832	0
12	59	11.23258524832	0
12	60	11.43258524832	0
12	61	11.570428496732	0
12	62	11.770428496732	0
12	63	11.970428496732	0
12	64	12.170428496732	0
12	65	12.370428496732	0
12	66	12.570428496732	0
12	67	12.770428496732	0
12	68	12.894785001482	0
12	69	13.094785001482	0
12	70	13.294785001482	0
12	71	13.494785001482	0
12	72	13.694785001482	0
12	73	13.894785001482	0
12	74	14.094785001482	0
12	75	14.294785001482	0
12	76	14.396569587673	0
12	77	14.596569587673	0
12	78	14.796569587673	0
12	79	14.996569587673	0
12	80	15.196569587673	0
12	81	15.396569587673	0
12	82	15.596569587673	0
12	83	15.790938488939	0
12	84	15.990938488939	0
12	85	16.190938488939	0
12	86	16.390938488939	0
12	87	16.590938488939	0
12	88	16.790938488939	0
12	89	16.990938488939	0
12	90	17.190938488939	0
12	91	17.390938488939	0
12	92	17.590938488939	0
12	93	17.790938488939	0
12	94	17.990938488939	0
12	95	18.190938488939	0
12	96	18.200036630973	0
12	97	18.400036630973	0
12	98	18.600036630973	0
12	99	18.800036630973	0
12	100	19.000036630973	0
12	101	19.200036630973	0
12	102	19.400036630973	0
12	103	19.600036630973	0
12	104	19.800036630973	0
12	105	20.000036630973	0
12	106	20.200036630973	0
12	107	20.400036630973	0
12	108	20.600036630973	0
12	109	20.800036630973	0
12	110	21.000036630973	0
12	111	21.031310898012	0
12	112	21.231310898012	0
12	113	21.431310898012	0
12	114	21.631310898012	0
12	115	21.831310898012	0
12	116	22.031310898012	0
12	117	22.231310898012	0
12	118	22.402059110095	0
12	119	22.602059110095	0
12	120	22.802059110095	0
12	121	23.002059110095	0
12	122	23.202059110095	0
12	123	23.402059110095	0
12	124	23.602059110095	0
12	125	23.802059110095	0
12	126	24.002059110095	0
12	127	24.202059110095	0
12	128	24.402059110095	0
12	129	24.602059110095	0
12	130	24.723545176506	0
12	131	24.923545176506	0
12	132	25.123545176506	0
12	133	25.323545176506	0
12	134	25.523545176506	0
12	135	25.723545176506	0
12	136	25.923545176506	0
12	137	26.123545176506	0
12	138	26.323545176506	0
12	139	26.523545176506	0
12	140	26.723545176506	0
12	141	26.923545176506	0
12	142	27.123545176506	0
12	143	27.12813776773	0
12	144	27.32813776773	0
12	145	27.52813776773	0
12	146	27.72813776773	0
12	147	27.92813776773	0
12	148	28.12813776773	0
12	149	28.32813776773	0
12	150	28.52813776773	0
12	151	28.72813776773	0
12	152	28.92813776773	0
12	153	29.12813776773	0
12	154	29.260762791491	0
12	155	29.460762791491	0
12	156	29.660762791491	0
12	157	29.860762791491	0
12	158	30.060762791491	0
12	159	30.260762791491	0
12	160	30.460762791491	0
12	161	30.660762791491	0
12	162	30.860762791491	0
12	163	31.060762791491	0
12	164	31.260762791491	0
12	165	31.460762791491	0
12	166	31.660762791491	0
12	167	31.860762791491	0
12	168	32.013057948541	0
12	169	32.213057948541	0