version 3
run CNPF-39-20240912-08:19:28-54225
attr configname CNPF
attr datetime 20240912-08:19:28
attr datetimef 20240912-081928
attr experiment CNPF
attr inifile omnetpp.ini
attr iterationvars $0=30
attr iterationvarsd 30
attr iterationvarsf 30-
attr measurement $0=30
attr network ParcelDeliveryNetwork
attr processid 54225
attr repetition 9
attr replication #9
attr resultdir results
attr runnumber 39
attr seedset 39
config image-path ../inet/images
config network ParcelDeliveryNetwork
config description "1 drones, 30 destinations, 30 parcels, "
config *.numdrones 1
config **.drone*.mobility.typename DroneNetMob
config **.drone[*].mobility.ndst 30
config **.drone[*].mobility.nd 8
config **.drone[*].mobility.npar 30
config **.drone[*].mobility.initFromDisplayString false
config **.drone[*].mobility.changeInterval "truncnormal(2s, 0.5s)"
config **.drone[*].mobility.angleDelta "normal(0deg, 30deg)"
config **.drone[*].mobility.speed 10mps
config **.drone[*].mobility.remainingBattery 480
config **.drone[*].mobility.weightCapacity 100
config **.drone[*].mobility.parcelSelectionMethod 0
config **.drone[*].mobility.initialX 0m
config **.drone[*].mobility.initialY 0m
config **.drone[*].mobility.initialZ 0m
config repeat 10
config sim-time-limit 80second
config **.constraintAreaMinX 0m
config **.constraintAreaMinY 0m
config **.constraintAreaMinZ 0m
config **.constraintAreaMaxX 600m
config **.constraintAreaMaxY 400m
config **.constraintAreaMaxZ 0m
config **.updateInterval 0.2s

vector 0 ParcelDeliveryNetwork.gcs.wlan[0].mac.dcf frameSequenceActive:vector ETV
attr autoWarmupFilter false
attr interpolationmode sample-hold
attr recordingmode vector
attr source warmup(count(frameSequenceStarted)-count(frameSequenceFinished))
attr title "frame sequence active"
vector 1 ParcelDeliveryNetwork.gcs.wlan[0].mac.dcf.channelAccess.pendingQueue queueLength:vector ETV
attr autoWarmupFilter false
attr interpolationmode sample-hold
attr recordingmode vector
attr source "warmup(atomic(constant0(packetPushEnded) + count(packetPushStarted) - count(packetPulled) - count(packetRemoved) - count(packetDropped)))"
attr title "queue length"
attr unit pk
vector 2 ParcelDeliveryNetwork.gcs.wlan[0].mac.dcf.channelAccess.pendingQueue queueBitLength:vector ETV
attr autoWarmupFilter false
attr interpolationmode sample-hold
attr recordingmode vector
attr source "warmup(atomic(constant0(packetPushEnded) + sum(packetLength(packetPushStarted)) - sum(packetLength(packetPulled)) - sum(packetLength(packetRemoved)) - sum(packetLength(packetDropped))))"
attr title "queue bit length"
attr unit b
vector 3 ParcelDeliveryNetwork.gcs.wlan[0].mac.dcf.channelAccess.inProgressFrames queueLength:vector ETV
attr autoWarmupFilter false
attr interpolationmode sample-hold
attr recordingmode vector
attr source "warmup(count(packetEnqueued) - count(packetDequeued))"
attr title "queue length"
vector 4 ParcelDeliveryNetwork.gcs.wlan[0].mac.dcf.channelAccess.contention backoffActive:vector ETV
attr autoWarmupFilter false
attr interpolationmode sample-hold
attr recordingmode vector
attr source warmup(count(backoffStarted)-count(backoffStopped))
attr title "backoff active"
vector 5 ParcelDeliveryNetwork.gcs.udp passedUpPk:vector(count) ETV
attr interpolationmode none
attr recordingmode vector(count)
attr source packetSentToUpper
attr title "packets passed up, count"
vector 6 ParcelDeliveryNetwork.gcs.udp droppedPkWrongPort:vector(count) ETV
attr interpolationmode none
attr recordingmode vector(count)
attr source packetDropReasonIsNoPortFound(packetDropped)
attr title "packets dropped (wrong port), count"
vector 7 ParcelDeliveryNetwork.gcs.udp droppedPkBadChecksum:vector(count) ETV
attr interpolationmode none
attr recordingmode vector(count)
attr source packetDropReasonIsIncorrectlyReceived(packetDropped)
attr title "packets dropped (checksum error), count"
vector 8 ParcelDeliveryNetwork.gcs.wlan[0].radio radioMode:vector ETV
attr interpolationmode sample-hold
attr recordingmode vector
attr source radioModeChanged
attr title "Radio mode"
vector 9 ParcelDeliveryNetwork.gcs.wlan[0].radio radioChannel:vector ETV
attr interpolationmode sample-hold
attr recordingmode vector
attr source radioChannelChanged
attr title "Radio channel"
vector 10 ParcelDeliveryNetwork.drone[0] coordX:vector ETV
attr interpolationmode linear
attr recordingmode vector
attr source xCoord(mobilityPos(mobilityStateChanged))
attr title "coord X"
vector 11 ParcelDeliveryNetwork.drone[0] coordY:vector ETV
attr interpolationmode linear
attr recordingmode vector
attr source yCoord(mobilityPos(mobilityStateChanged))
attr title "coord Y"
vector 12 ParcelDeliveryNetwork.drone[0] coordZ:vector ETV
attr interpolationmode linear
attr recordingmode vector
attr source zCoord(mobilityPos(mobilityStateChanged))
attr title "coord Z"
vector 13 ParcelDeliveryNetwork.gcs.wlan[0].radio receptionState:vector ETV
attr interpolationmode sample-hold
attr recordingmode vector
attr source receptionStateChanged
attr title "Radio reception state"
vector 14 ParcelDeliveryNetwork.gcs.wlan[0].mac.dcf.channelAccess.contention stateChanged:vector ETV
attr enum IDLE,DEFER,IFS_AND_BACKOFF
attr interpolationmode none
attr recordingmode vector
attr title "contention state changed"
attr type enum
vector 15 ParcelDeliveryNetwork.gcs.wlan[0].mac.dcf.recoveryProcedure contentionWindowChanged:vector ETV
attr interpolationmode sample-hold
attr recordingmode vector
attr title "contention window"
0	0	0	0
0	0	0	0
1	0	0	0
1	0	0	0
1	0	0	0
1	0	0	0
1	0	0	0
2	0	0	0
2	0	0	0
2	0	0	0
2	0	0	0
2	0	0	0
3	0	0	0
3	0	0	0
4	0	0	0
4	0	0	0
5	0	0	0
6	0	0	0
7	0	0	0
8	0	0	0
8	0	0	0
8	0	0	2
9	0	0	0
10	0	0	0
10	1	0.2	0
10	2	0.4	0
10	3	0.6	0
10	4	0.8	0
10	5	1	0
10	6	1.2	0
10	7	1.379045183986	0
10	8	1.579045183986	0
10	9	1.779045183986	0
10	10	1.979045183986	0
10	11	2.179045183986	0
10	12	2.379045183986	0
10	13	2.579045183986	0
10	14	2.779045183986	0
10	15	2.979045183986	0
10	16	3.179045183986	0
10	17	3.379045183986	0
10	18	3.500049284975	0
10	19	3.700049284975	0
10	20	3.900049284975	0
10	21	4.100049284975	0
10	22	4.300049284975	0
10	23	4.500049284975	0
10	24	4.700049284975	0
10	25	4.900049284975	0
10	26	4.958541722489	0
10	27	5.158541722489	0
10	28	5.358541722489	0
10	29	5.558541722489	0
10	30	5.758541722489	0
10	31	5.958541722489	0
10	32	6.158541722489	0
10	33	6.358541722489	0
10	34	6.442918212747	0
10	35	6.642918212747	0
10	36	6.842918212747	0
10	37	7.042918212747	0
10	38	7.242918212747	0
10	39	7.442918212747	0
10	40	7.642918212747	0
10	41	7.842918212747	0
10	42	8.042918212747	0
10	43	8.242918212747	0
10	44	8.442918212747	0
10	45	8.520095115016	0
10	46	8.720095115016	0
10	47	8.920095115016	0
10	48	9.120095115016	0
10	49	9.320095115016	0
10	50	9.520095115016	0
10	51	9.720095115016	0
10	52	9.920095115016	0
10	53	10.120095115016	0
10	54	10.318613601552	0
10	55	10.518613601552	0
10	56	10.718613601552	0
10	57	10.918613601552	0
10	58	11.118613601552	0
10	59	11.318613601552	0
10	60	11.518613601552	0
10	61	11.718613601552	0
10	62	11.918613601552	0
10	63	12.118613601552	0
10	64	12.318613601552	0
10	65	12.330100897295	0
10	66	12.530100897295	0
10	67	12.730100897295	0
10	68	12.930100897295	0
10	69	13.130100897295	0
10	70	13.330100897295	0
10	71	13.530100897295	0
10	72	13.730100897295	0
10	73	13.930100897295	0
10	74	14.130100897295	0
10	75	14.330100897295	0
10	76	14.530100897295	0
10	77	14.730100897295	0
10	78	14.930100897295	0
10	79	15.130100897295	0
10	80	15.330100897295	0
10	81	15.35761029849	0
10	82	15.55761029849	0
10	83	15.75761029849	0
10	84	15.95761029849	0
10	85	16.15761029849	0
10	86	16.35761029849	0
10	87	16.453977985443	0
10	88	16.653977985443	0
10	89	16.853977985443	0
10	90	17.053977985443	0
10	91	17.253977985443	0
10	92	17.453977985443	0
10	93	17.653977985443	0
10	94	17.853977985443	0
10	95	18.053977985443	0
10	96	18.253977985443	0
10	97	18.453977985443	0
10	98	18.580411709885	0
10	99	18.780411709885	0
10	100	18.980411709885	0
10	101	19.180411709885	0
10	102	19.380411709885	0
10	103	19.477955584583	0
10	104	19.677955584583	0
10	105	19.877955584583	0
10	106	20.077955584583	0
10	107	20.277955584583	0
10	108	20.477955584583	0
10	109	20.677955584583	0
10	110	20.877955584583	0
10	111	21.077955584583	0
10	112	21.277955584583	0
10	113	21.477955584583	0
10	114	21.677955584583	0
10	115	21.877955584583	0
10	116	21.994682193571	0
10	117	22.194682193571	0
10	118	22.394682193571	0
10	119	22.594682193571	0
10	120	22.794682193571	0
10	121	22.994682193571	0
10	122	23.194682193571	0
10	123	23.394682193571	0
10	124	23.516061331735	0
10	125	23.716061331735	0
10	126	23.916061331735	0
10	127	24.116061331735	0
10	128	24.316061331735	0
10	129	24.516061331735	0
10	130	24.716061331735	0
10	131	24.916061331735	0
10	132	25.116061331735	0
10	133	25.316061331735	0
10	134	25.516061331735	0
10	135	25.534015097925	0
10	136	25.734015097925	0
10	137	25.934015097925	0
10	138	26.134015097925	0
10	139	26.334015097925	0
10	140	26.534015097925	0
10	141	26.734015097925	0
10	142	26.934015097925	0
10	143	27.134015097925	0
10	144	27.140144762244	0
10	145	27.340144762244	0
10	146	27.540144762244	0
10	147	27.740144762244	0
10	148	27.940144762244	0
10	149	28.140144762244	0
10	150	28.340144762244	0
10	151	28.540144762244	0
10	152	28.740144762244	0
10	153	28.872287094148	0
10	154	29.072287094148	0
10	155	29.272287094148	0
10	156	29.472287094148	0
10	157	29.672287094148	0
10	158	29.872287094148	0
10	159	30.072287094148	0
10	160	30.272287094148	0
10	161	30.458670395925	0
10	162	30.658670395925	0
10	163	30.858670395925	0
10	164	31.058670395925	0
10	165	31.258670395925	0
10	166	31.458670395925	0
10	167	31.658670395925	0
10	168	31.858670395925	0
10	169	32.058670395925	0
10	170	32.063162506834	0
10	171	32.263162506834	0
10	172	32.463162506834	0
10	173	32.663162506834	0
10	174	32.863162506834	0
10	175	33.063162506834	0
10	176	33.263162506834	0
10	177	33.463162506834	0
10	178	33.663162506834	0
10	179	33.863162506834	0
10	180	34.024236568487	0
10	181	34.224236568487	0
10	182	34.424236568487	0
10	183	34.624236568487	0
10	184	34.824236568487	0
10	185	35.024236568487	0
10	186	35.224236568487	0
10	187	35.424236568487	0
10	188	35.624236568487	0
10	189	35.824236568487	0
10	190	36.024236568487	0
10	191	36.224236568487	0
10	192	36.424236568487	0
10	193	36.624236568487	0
10	194	36.824236568487	0
10	195	36.878649375837	0
10	196	37.078649375837	0
10	197	37.278649375837	0
10	198	37.478649375837	0
10	199	37.678649375837	0
10	200	37.878649375837	0
10	201	38.078649375837	0
10	202	38.278649375837	0
10	203	38.478649375837	0
10	204	38.678649375837	0
10	205	38.878649375837	0
10	206	39.078649375837	0
10	207	39.278649375837	0
10	208	39.478649375837	0
10	209	39.503561977357	0
10	210	39.703561977357	0
10	211	39.903561977357	0
10	212	40.103561977357	0
10	213	40.303561977357	0
10	214	40.503561977357	0
10	215	40.703561977357	0
10	216	40.903561977357	0
10	217	41.103561977357	0
10	218	41.303561977357	0
10	219	41.503561977357	0
10	220	41.521184984013	0
10	221	41.721184984013	0
10	222	41.921184984013	0
10	223	42.121184984013	0
10	224	42.321184984013	0
10	225	42.521184984013	0
10	226	42.721184984013	0
10	227	42.921184984013	0
10	228	43.121184984013	0
10	229	43.321184984013	0
10	230	43.521184984013	0
10	231	43.721184984013	0
10	232	43.867020820702	0
10	233	44.067020820702	0
10	234	44.267020820702	0
10	235	44.467020820702	0
10	236	44.667020820702	0
10	237	44.867020820702	0
10	238	45.067020820702	0
10	239	45.267020820702	0
10	240	45.467020820702	0
10	241	45.667020820702	0
10	242	45.867020820702	0
10	243	46.067020820702	0
10	244	46.267020820702	0
10	245	46.440291176708	0
10	246	46.640291176708	0
10	247	46.840291176708	0
10	248	47.040291176708	0
10	249	47.240291176708	0
10	250	47.440291176708	0
10	251	47.640291176708	0
10	252	47.76251976602	0
10	253	47.96251976602	0
10	254	48.16251976602	0
10	255	48.36251976602	0
10	256	48.56251976602	0
10	257	48.76251976602	0
10	258	48.96251976602	0
10	259	49.16251976602	0
10	260	49.36251976602	0
10	261	49.56251976602	0
10	262	49.76251976602	0
10	263	49.96251976602	0
10	264	49.974102570717	0
10	265	50.174102570717	0
10	266	50.374102570717	0
10	267	50.574102570717	0
10	268	50.774102570717	0
10	269	50.974102570717	0
10	270	51.174102570717	0
10	271	51.374102570717	0
10	272	51.574102570717	0
10	273	51.689158768168	0
10	274	51.889158768168	0
10	275	52.089158768168	0
10	276	52.289158768168	0
10	277	52.489158768168	0
10	278	52.689158768168	0
10	279	52.889158768168	0
10	280	53.089158768168	0
10	281	53.289158768168	0
10	282	53.489158768168	0
10	283	53.55934632021	0
10	284	53.75934632021	0
10	285	53.95934632021	0
10	286	54.15934632021	0
10	287	54.35934632021	0
10	288	54.55934632021	0
10	289	54.75934632021	0
10	290	54.95934632021	0
10	291	55.15934632021	0
10	292	55.35706211558	0
10	293	55.55706211558	0
10	294	55.75706211558	0
10	295	55.95706211558	0
10	296	56.15706211558	0
10	297	56.35706211558	0
10	298	56.55706211558	0
10	299	56.75706211558	0
10	300	56.95706211558	0
10	301	57.15706211558	0
10	302	57.35706211558	0
10	303	57.413265505467	0
10	304	57.613265505467	0
10	305	57.813265505467	0
10	306	58.013265505467	0
10	307	58.213265505467	0
10	308	58.413265505467	0
10	309	58.613265505467	0
10	310	58.813265505467	0
10	311	59.013265505467	0
10	312	59.140854908315	0
10	313	59.340854908315	0
10	314	59.540854908315	0
10	315	59.740854908315	0
10	316	59.940854908315	0
10	317	59.986758160342	0
10	318	60.186758160342	0
10	319	60.386758160342	0
10	320	60.586758160342	0
10	321	60.786758160342	0
10	322	60.986758160342	0
10	323	61.186758160342	0
10	324	61.386758160342	0
10	325	61.586758160342	0
10	326	61.786758160342	0
10	327	61.986758160342	0
10	328	62.186758160342	0
10	329	62.189174271398	0
10	330	62.389174271398	0
10	331	62.589174271398	0
10	332	62.789174271398	0
10	333	62.989174271398	0
10	334	63.189174271398	0
10	335	63.389174271398	0
10	336	63.589174271398	0
10	337	63.789174271398	0
10	338	63.989174271398	0
10	339	64.167746767383	0
10	340	64.367746767383	0
10	341	64.567746767383	0
10	342	64.767746767383	0
10	343	64.967746767383	0
10	344	65.167746767383	0
10	345	65.367746767383	0
10	346	65.567746767383	0
10	347	65.767746767383	0
10	348	65.844560690225	0
10	349	66.044560690225	0
10	350	66.244560690225	0
10	351	66.444560690225	0
10	352	66.644560690225	0
10	353	66.844560690225	0
10	354	67.044560690225	0
10	355	67.244560690225	0
10	356	67.343855820224	0
10	357	67.543855820224	0
10	358	67.743855820224	0
10	359	67.943855820224	0
10	360	68.143855820224	0
10	361	68.343855820224	0
10	362	68.543855820224	0
10	363	68.743855820224	0
10	364	68.943855820224	0
10	365	69.143855820224	0
10	366	69.32652174463	0
10	367	69.52652174463	0
10	368	69.72652174463	0
10	369	69.92652174463	0
10	370	70.12652174463	0
10	371	70.32652174463	0
10	372	70.52652174463	0
10	373	70.72652174463	0
10	374	70.92652174463	0
10	375	71.12652174463	0
10	376	71.32652174463	0
10	377	71.522700021413	0
10	378	71.722700021413	0
10	379	71.922700021413	0
10	380	72.122700021413	0
10	381	72.322700021413	0
10	382	72.522700021413	0
10	383	72.722700021413	0
10	384	72.922700021413	0
10	385	73.122700021413	0
10	386	73.217832483429	0
10	387	73.417832483429	0
10	388	73.617832483429	0
10	389	73.817832483429	0
10	390	74.017832483429	0
10	391	74.217832483429	0
10	392	74.417832483429	0
10	393	74.617832483429	0
10	394	74.817832483429	0
10	395	75.017832483429	0
10	396	75.217832483429	0
10	397	75.417832483429	0
10	398	75.475745663977	0
10	399	75.675745663977	0
10	400	75.875745663977	0
10	401	76.075745663977	0
10	402	76.275745663977	0
10	403	76.475745663977	0
10	404	76.675745663977	0
10	405	76.68345406592	0
10	406	76.88345406592	0
10	407	77.08345406592	0
10	408	77.28345406592	0
10	409	77.48345406592	0
10	410	77.68345406592	0
10	411	77.88345406592	0
10	412	78.08345406592	0
10	413	78.28345406592	0
10	414	78.48345406592	0
10	415	78.68345406592	0
10	416	78.88345406592	0
10	417	79.08345406592	0
10	418	79.28345406592	0
10	419	79.36843186147	0
10	420	79.56843186147	0
10	421	79.76843186147	0
10	422	79.96843186147	0
11	0	0	0
11	1	0.2	0
11	2	0.4	0
11	3	0.6	0
11	4	0.8	0
11	5	1	0
11	6	1.2	0
11	7	1.379045183986	0
11	8	1.579045183986	0
11	9	1.779045183986	0
11	10	1.979045183986	0
11	11	2.179045183986	0
11	12	2.379045183986	0
11	13	2.579045183986	0
11	14	2.779045183986	0
11	15	2.979045183986	0
11	16	3.179045183986	0
11	17	3.379045183986	0
11	18	3.500049284975	0
11	19	3.700049284975	0
11	20	3.900049284975	0
11	21	4.100049284975	0
11	22	4.300049284975	0
11	23	4.500049284975	0
11	24	4.700049284975	0
11	25	4.900049284975	0
11	26	4.958541722489	0
11	27	5.158541722489	0
11	28	5.358541722489	0
11	29	5.558541722489	0
11	30	5.758541722489	0
11	31	5.958541722489	0
11	32	6.158541722489	0
11	33	6.358541722489	0
11	34	6.442918212747	0
11	35	6.642918212747	0
11	36	6.842918212747	0
11	37	7.042918212747	0
11	38	7.242918212747	0
11	39	7.442918212747	0
11	40	7.642918212747	0
11	41	7.842918212747	0
11	42	8.042918212747	0
11	43	8.242918212747	0
11	44	8.442918212747	0
11	45	8.520095115016	0
11	46	8.720095115016	0
11	47	8.920095115016	0
11	48	9.120095115016	0
11	49	9.320095115016	0
11	50	9.520095115016	0
11	51	9.720095115016	0
11	52	9.920095115016	0
11	53	10.120095115016	0
11	54	10.318613601552	0
11	55	10.518613601552	0
11	56	10.718613601552	0
11	57	10.918613601552	0
11	58	11.118613601552	0
11	59	11.318613601552	0
11	60	11.518613601552	0
11	61	11.718613601552	0
11	62	11.918613601552	0
11	63	12.118613601552	0
11	64	12.318613601552	0
11	65	12.330100897295	0
11	66	12.530100897295	0
11	67	12.730100897295	0
11	68	12.930100897295	0
11	69	13.130100897295	0
11	70	13.330100897295	0
11	71	13.530100897295	0
11	72	13.730100897295	0
11	73	13.930100897295	0
11	74	14.130100897295	0
11	75	14.330100897295	0
11	76	14.530100897295	0
11	77	14.730100897295	0
11	78	14.930100897295	0
11	79	15.130100897295	0
11	80	15.330100897295	0
11	81	15.35761029849	0
11	82	15.55761029849	0
11	83	15.75761029849	0
11	84	15.95761029849	0
11	85	16.15761029849	0
11	86	16.35761029849	0
11	87	16.453977985443	0
11	88	16.653977985443	0
11	89	16.853977985443	0
11	90	17.053977985443	0
11	91	17.253977985443	0
11	92	17.453977985443	0
11	93	17.653977985443	0
11	94	17.853977985443	0
11	95	18.053977985443	0
11	96	18.253977985443	0
11	97	18.453977985443	0
11	98	18.580411709885	0
11	99	18.780411709885	0
11	100	18.980411709885	0
11	101	19.180411709885	0
11	102	19.380411709885	0
11	103	19.477955584583	0
11	104	19.677955584583	0
11	105	19.877955584583	0
11	106	20.077955584583	0
11	107	20.277955584583	0
11	108	20.477955584583	0
11	109	20.677955584583	0
11	110	20.877955584583	0
11	111	21.077955584583	0
11	112	21.277955584583	0
11	113	21.477955584583	0
11	114	21.677955584583	0
11	115	21.877955584583	0
11	116	21.994682193571	0
11	117	22.194682193571	0
11	118	22.394682193571	0
11	119	22.594682193571	0
11	120	22.794682193571	0
11	121	22.994682193571	0
11	122	23.194682193571	0
11	123	23.394682193571	0
11	124	23.516061331735	0
11	125	23.716061331735	0
11	126	23.916061331735	0
11	127	24.116061331735	0
11	128	24.316061331735	0
11	129	24.516061331735	0
11	130	24.716061331735	0
11	131	24.916061331735	0
11	132	25.116061331735	0
11	133	25.316061331735	0
11	134	25.516061331735	0
11	135	25.534015097925	0
11	136	25.734015097925	0
11	137	25.934015097925	0
11	138	26.134015097925	0
11	139	26.334015097925	0
11	140	26.534015097925	0
11	141	26.734015097925	0
11	142	26.934015097925	0
11	143	27.134015097925	0
11	144	27.140144762244	0
11	145	27.340144762244	0
11	146	27.540144762244	0
11	147	27.740144762244	0
11	148	27.940144762244	0
11	149	28.140144762244	0
11	150	28.340144762244	0
11	151	28.540144762244	0
11	152	28.740144762244	0
11	153	28.872287094148	0
11	154	29.072287094148	0
11	155	29.272287094148	0
11	156	29.472287094148	0
11	157	29.672287094148	0
11	158	29.872287094148	0
11	159	30.072287094148	0
11	160	30.272287094148	0
11	161	30.458670395925	0
11	162	30.658670395925	0
11	163	30.858670395925	0
11	164	31.058670395925	0
11	165	31.258670395925	0
11	166	31.458670395925	0
11	167	31.658670395925	0
11	168	31.858670395925	0
11	169	32.058670395925	0
11	170	32.063162506834	0
11	171	32.263162506834	0
11	172	32.463162506834	0
11	173	32.663162506834	0
11	174	32.863162506834	0
11	175	33.063162506834	0
11	176	33.263162506834	0
11	177	33.463162506834	0
11	178	33.663162506834	0
11	179	33.863162506834	0
11	180	34.024236568487	0
11	181	34.224236568487	0
11	182	34.424236568487	0
11	183	34.624236568487	0
11	184	34.824236568487	0
11	185	35.024236568487	0
11	186	35.224236568487	0
11	187	35.424236568487	0
11	188	35.624236568487	0
11	189	35.824236568487	0
11	190	36.024236568487	0
11	191	36.224236568487	0
11	192	36.424236568487	0
11	193	36.624236568487	0
11	194	36.824236568487	0
11	195	36.878649375837	0
11	196	37.078649375837	0
11	197	37.278649375837	0
11	198	37.478649375837	0
11	199	37.678649375837	0
11	200	37.878649375837	0
11	201	38.078649375837	0
11	202	38.278649375837	0
11	203	38.478649375837	0
11	204	38.678649375837	0
11	205	38.878649375837	0
11	206	39.078649375837	0
11	207	39.278649375837	0
11	208	39.478649375837	0
11	209	39.503561977357	0
11	210	39.703561977357	0
11	211	39.903561977357	0
11	212	40.103561977357	0
11	213	40.303561977357	0
11	214	40.503561977357	0
11	215	40.703561977357	0
11	216	40.903561977357	0
11	217	41.103561977357	0
11	218	41.303561977357	0
11	219	41.503561977357	0
11	220	41.521184984013	0
11	221	41.721184984013	0
11	222	41.921184984013	0
11	223	42.121184984013	0
11	224	42.321184984013	0
11	225	42.521184984013	0
11	226	42.721184984013	0
11	227	42.921184984013	0
11	228	43.121184984013	0
11	229	43.321184984013	0
11	230	43.521184984013	0
11	231	43.721184984013	0
11	232	43.867020820702	0
11	233	44.067020820702	0
11	234	44.267020820702	0
11	235	44.467020820702	0
11	236	44.667020820702	0
11	237	44.867020820702	0
11	238	45.067020820702	0
11	239	45.267020820702	0
11	240	45.467020820702	0
11	241	45.667020820702	0
11	242	45.867020820702	0
11	243	46.067020820702	0
11	244	46.267020820702	0
11	245	46.440291176708	0
11	246	46.640291176708	0
11	247	46.840291176708	0
11	248	47.040291176708	0
11	249	47.240291176708	0
11	250	47.440291176708	0
11	251	47.640291176708	0
11	252	47.76251976602	0
11	253	47.96251976602	0
11	254	48.16251976602	0
11	255	48.36251976602	0
11	256	48.56251976602	0
11	257	48.76251976602	0
11	258	48.96251976602	0
11	259	49.16251976602	0
11	260	49.36251976602	0
11	261	49.56251976602	0
11	262	49.76251976602	0
11	263	49.96251976602	0
11	264	49.974102570717	0
11	265	50.174102570717	0
11	266	50.374102570717	0
11	267	50.574102570717	0
11	268	50.774102570717	0
11	269	50.974102570717	0
11	270	51.174102570717	0
11	271	51.374102570717	0
11	272	51.574102570717	0
11	273	51.689158768168	0
11	274	51.889158768168	0
11	275	52.089158768168	0
11	276	52.289158768168	0
11	277	52.489158768168	0
11	278	52.689158768168	0
11	279	52.889158768168	0
11	280	53.089158768168	0
11	281	53.289158768168	0
11	282	53.489158768168	0
11	283	53.55934632021	0
11	284	53.75934632021	0
11	285	53.95934632021	0
11	286	54.15934632021	0
11	287	54.35934632021	0
11	288	54.55934632021	0
11	289	54.75934632021	0
11	290	54.95934632021	0
11	291	55.15934632021	0
11	292	55.35706211558	0
11	293	55.55706211558	0
11	294	55.75706211558	0
11	295	55.95706211558	0
11	296	56.15706211558	0
11	297	56.35706211558	0
11	298	56.55706211558	0
11	299	56.75706211558	0
11	300	56.95706211558	0
11	301	57.15706211558	0
11	302	57.35706211558	0
11	303	57.413265505467	0
11	304	57.613265505467	0
11	305	57.813265505467	0
11	306	58.013265505467	0
11	307	58.213265505467	0
11	308	58.413265505467	0
11	309	58.613265505467	0
11	310	58.813265505467	0
11	311	59.013265505467	0
11	312	59.140854908315	0
11	313	59.340854908315	0
11	314	59.540854908315	0
11	315	59.740854908315	0
11	316	59.940854908315	0
11	317	59.986758160342	0
11	318	60.186758160342	0
11	319	60.386758160342	0
11	320	60.586758160342	0
11	321	60.786758160342	0
11	322	60.986758160342	0
11	323	61.186758160342	0
11	324	61.386758160342	0
11	325	61.586758160342	0
11	326	61.786758160342	0
11	327	61.986758160342	0
11	328	62.186758160342	0
11	329	62.189174271398	0
11	330	62.389174271398	0
11	331	62.589174271398	0
11	332	62.789174271398	0
11	333	62.989174271398	0
11	334	63.189174271398	0
11	335	63.389174271398	0
11	336	63.589174271398	0
11	337	63.789174271398	0
11	338	63.989174271398	0
11	339	64.167746767383	0
11	340	64.367746767383	0
11	341	64.567746767383	0
11	342	64.767746767383	0
11	343	64.967746767383	0
11	344	65.167746767383	0
11	345	65.367746767383	0
11	346	65.567746767383	0
11	347	65.767746767383	0
11	348	65.844560690225	0
11	349	66.044560690225	0
11	350	66.244560690225	0
11	351	66.444560690225	0
11	352	66.644560690225	0
11	353	66.844560690225	0
11	354	67.044560690225	0
11	355	67.244560690225	0
11	356	67.343855820224	0
11	357	67.543855820224	0
11	358	67.743855820224	0
11	359	67.943855820224	0
11	360	68.143855820224	0
11	361	68.343855820224	0
11	362	68.543855820224	0
11	363	68.743855820224	0
11	364	68.943855820224	0
11	365	69.143855820224	0
11	366	69.32652174463	0
11	367	69.52652174463	0
11	368	69.72652174463	0
11	369	69.92652174463	0
11	370	70.12652174463	0
11	371	70.32652174463	0
11	372	70.52652174463	0
11	373	70.72652174463	0
11	374	70.92652174463	0
11	375	71.12652174463	0
11	376	71.32652174463	0
11	377	71.522700021413	0
11	378	71.722700021413	0
11	379	71.922700021413	0
11	380	72.122700021413	0
11	381	72.322700021413	0
11	382	72.522700021413	0
11	383	72.722700021413	0
11	384	72.922700021413	0
11	385	73.122700021413	0
11	386	73.217832483429	0
11	387	73.417832483429	0
11	388	73.617832483429	0
11	389	73.817832483429	0
11	390	74.017832483429	0
11	391	74.217832483429	0
11	392	74.417832483429	0
11	393	74.617832483429	0
11	394	74.817832483429	0
11	395	75.017832483429	0
11	396	75.217832483429	0
11	397	75.417832483429	0
11	398	75.475745663977	0
11	399	75.675745663977	0
11	400	75.875745663977	0
11	401	76.075745663977	0
11	402	76.275745663977	0
11	403	76.475745663977	0
11	404	76.675745663977	0
11	405	76.68345406592	0
11	406	76.88345406592	0
11	407	77.08345406592	0
11	408	77.28345406592	0
11	409	77.48345406592	0
11	410	77.68345406592	0
11	411	77.88345406592	0
11	412	78.08345406592	0
11	413	78.28345406592	0
11	414	78.48345406592	0
11	415	78.68345406592	0
11	416	78.88345406592	0
11	417	79.08345406592	0
11	418	79.28345406592	0
11	419	79.36843186147	0
11	420	79.56843186147	0
11	421	79.76843186147	0
11	422	79.96843186147	0
12	0	0	0
12	1	0.2	0
12	2	0.4	0
12	3	0.6	0
12	4	0.8	0
12	5	1	0
12	6	1.2	0
12	7	1.379045183986	0
12	8	1.579045183986	0
12	9	1.779045183986	0
12	10	1.979045183986	0
12	11	2.179045183986	0
12	12	2.379045183986	0
12	13	2.579045183986	0
12	14	2.779045183986	0
12	15	2.979045183986	0
12	16	3.179045183986	0
12	17	3.379045183986	0
12	18	3.500049284975	0
12	19	3.700049284975	0
12	20	3.900049284975	0
12	21	4.100049284975	0
12	22	4.300049284975	0
12	23	4.500049284975	0
12	24	4.700049284975	0
12	25	4.900049284975	0
12	26	4.958541722489	0
12	27	5.158541722489	0
12	28	5.358541722489	0
12	29	5.558541722489	0
12	30	5.758541722489	0
12	31	5.958541722489	0
12	32	6.158541722489	0
12	33	6.358541722489	0
12	34	6.442918212747	0
12	35	6.642918212747	0
12	36	6.842918212747	0
12	37	7.042918212747	0
12	38	7.242918212747	0
12	39	7.442918212747	0
12	40	7.642918212747	0
12	41	7.842918212747	0
12	42	8.042918212747	0
12	43	8.242918212747	0
12	44	8.442918212747	0
12	45	8.520095115016	0
12	46	8.720095115016	0
12	47	8.920095115016	0
12	48	9.120095115016	0
12	49	9.320095115016	0
12	50	9.520095115016	0
12	51	9.720095115016	0
12	52	9.920095115016	0
12	53	10.120095115016	0
12	54	10.318613601552	0
12	55	10.518613601552	0
12	56	10.718613601552	0
12	57	10.918613601552	0
12	58	11.118613601552	0
12	59	11.318613601552	0
12	60	11.518613601552	0
12	61	11.718613601552	0
12	62	11.918613601552	0
12	63	12.118613601552	0
12	64	12.318613601552	0
12	65	12.330100897295	0
12	66	12.530100897295	0
12	67	12.730100897295	0
12	68	12.930100897295	0
12	69	13.130100897295	0
12	70	13.330100897295	0
12	71	13.530100897295	0
12	72	13.730100897295	0
12	73	13.930100897295	0
12	74	14.130100897295	0
12	75	14.330100897295	0
12	76	14.530100897295	0
12	77	14.730100897295	0
12	78	14.930100897295	0
12	79	15.130100897295	0
12	80	15.330100897295	0
12	81	15.35761029849	0
12	82	15.55761029849	0
12	83	15.75761029849	0
12	84	15.95761029849	0
12	85	16.15761029849	0
12	86	16.35761029849	0
12	87	16.453977985443	0
12	88	16.653977985443	0
12	89	16.853977985443	0
12	90	17.053977985443	0
12	91	17.253977985443	0
12	92	17.453977985443	0
12	93	17.653977985443	0
12	94	17.853977985443	0
12	95	18.053977985443	0
12	96	18.253977985443	0
12	97	18.453977985443	0
12	98	18.580411709885	0
12	99	18.780411709885	0
12	100	18.980411709885	0
12	101	19.180411709885	0
12	102	19.380411709885	0
12	103	19.477955584583	0
12	104	19.677955584583	0
12	105	19.877955584583	0
12	106	20.077955584583	0
12	107	20.277955584583	0
12	108	20.477955584583	0
12	109	20.677955584583	0
12	110	20.877955584583	0
12	111	21.077955584583	0
12	112	21.277955584583	0
12	113	21.477955584583	0
12	114	21.677955584583	0
12	115	21.877955584583	0
12	116	21.994682193571	0
12	117	22.194682193571	0
12	118	22.394682193571	0
12	119	22.594682193571	0
12	120	22.794682193571	0
12	121	22.994682193571	0
12	122	23.194682193571	0
12	123	23.394682193571	0
12	124	23.516061331735	0
12	125	23.716061331735	0
12	126	23.916061331735	0
12	127	24.116061331735	0
12	128	24.316061331735	0
12	129	24.516061331735	0
12	130	24.716061331735	0
12	131	24.916061331735	0
12	132	25.116061331735	0
12	133	25.316061331735	0
12	134	25.516061331735	0
12	135	25.534015097925	0
12	136	25.734015097925	0
12	137	25.934015097925	0
12	138	26.134015097925	0
12	139	26.334015097925	0
12	140	26.534015097925	0
12	141	26.734015097925	0
12	142	26.934015097925	0
12	143	27.134015097925	0
12	144	27.140144762244	0
12	145	27.340144762244	0
12	146	27.540144762244	0
12	147	27.740144762244	0
12	148	27.940144762244	0
12	149	28.140144762244	0
12	150	28.340144762244	0
12	151	28.540144762244	0
12	152	28.740144762244	0
12	153	28.872287094148	0
12	154	29.072287094148	0
12	155	29.272287094148	0
12	156	29.472287094148	0
12	157	29.672287094148	0
12	158	29.872287094148	0
12	159	30.072287094148	0
12	160	30.272287094148	0
12	161	30.458670395925	0
12	162	30.658670395925	0