version 3
run CNPF-37-20240912-08:19:28-54225
attr configname CNPF
attr datetime 20240912-08:19:28
attr datetimef 20240912-081928
attr experiment CNPF
attr inifile omnetpp.ini
attr iterationvars $0=30
attr iterationvarsd 30
attr iterationvarsf 30-
attr measurement $0=30
attr network ParcelDeliveryNetwork
attr processid 54225
attr repetition 7
attr replication #7
attr resultdir results
attr runnumber 37
attr seedset 37
config image-path ../inet/images
config network ParcelDeliveryNetwork
config description "1 drones, 30 destinations, 30 parcels, "
config *.numdrones 1
config **.drone*.mobility.typename DroneNetMob
config **.drone[*].mobility.ndst 30
config **.drone[*].mobility.nd 8
config **.drone[*].mobility.npar 30
config **.drone[*].mobility.initFromDisplayString false
config **.drone[*].mobility.changeInterval "truncnormal(2s, 0.5s)"
config **.drone[*].mobility.angleDelta "normal(0deg, 30deg)"
config **.drone[*].mobility.speed 10mps
config **.drone[*].mobility.remainingBattery 480
config **.drone[*].mobility.weightCapacity 100
config **.drone[*].mobility.parcelSelectionMethod 0
config **.drone[*].mobility.initialX 0m
config **.drone[*].mobility.initialY 0m
config **.drone[*].mobility.initialZ 0m
config repeat 10
config sim-time-limit 80second
config **.constraintAreaMinX 0m
config **.constraintAreaMinY 0m
config **.constraintAreaMinZ 0m
config **.constraintAreaMaxX 600m
config **.constraintAreaMaxY 400m
config **.constraintAreaMaxZ 0m
config **.updateInterval 0.2s

vector 0 ParcelDeliveryNetwork.gcs.wlan[0].mac.dcf frameSequenceActive:vector ETV
attr autoWarmupFilter false
attr interpolationmode sample-hold
attr recordingmode vector
attr source warmup(count(frameSequenceStarted)-count(frameSequenceFinished))
attr title "frame sequence active"
vector 1 ParcelDeliveryNetwork.gcs.wlan[0].mac.dcf.channelAccess.pendingQueue queueLength:vector ETV
attr autoWarmupFilter false
attr interpolationmode sample-hold
attr recordingmode vector
attr source "warmup(atomic(constant0(packetPushEnded) + count(packetPushStarted) - count(packetPulled) - count(packetRemoved) - count(packetDropped)))"
attr title "queue length"
attr unit pk
vector 2 ParcelDeliveryNetwork.gcs.wlan[0].mac.dcf.channelAccess.pendingQueue queueBitLength:vector ETV
attr autoWarmupFilter false
attr interpolationmode sample-hold
attr recordingmode vector
attr source "warmup(atomic(constant0(packetPushEnded) + sum(packetLength(packetPushStarted)) - sum(packetLength(packetPulled)) - sum(packetLength(packetRemoved)) - sum(packetLength(packetDropped))))"
attr title "queue bit length"
attr unit b
vector 3 ParcelDeliveryNetwork.gcs.wlan[0].mac.dcf.channelAccess.inProgressFrames queueLength:vector ETV
attr autoWarmupFilter false
attr interpolationmode sample-hold
attr recordingmode vector
attr source "warmup(count(packetEnqueued) - count(packetDequeued))"
attr title "queue length"
vector 4 ParcelDeliveryNetwork.gcs.wlan[0].mac.dcf.channelAccess.contention backoffActive:vector ETV
attr autoWarmupFilter false
attr interpolationmode sample-hold
attr recordingmode vector
attr source warmup(count(backoffStarted)-count(backoffStopped))
attr title "backoff active"
vector 5 ParcelDeliveryNetwork.gcs.udp passedUpPk:vector(count) ETV
attr interpolationmode none
attr recordingmode vector(count)
attr source packetSentToUpper
attr title "packets passed up, count"
vector 6 ParcelDeliveryNetwork.gcs.udp droppedPkWrongPort:vector(count) ETV
attr interpolationmode none
attr recordingmode vector(count)
attr source packetDropReasonIsNoPortFound(packetDropped)
attr title "packets dropped (wrong port), count"
vector 7 ParcelDeliveryNetwork.gcs.udp droppedPkBadChecksum:vector(count) ETV
attr interpolationmode none
attr recordingmode vector(count)
attr source packetDropReasonIsIncorrectlyReceived(packetDropped)
attr title "packets dropped (checksum error), count"
vector 8 ParcelDeliveryNetwork.gcs.wlan[0].radio radioMode:vector ETV
attr interpolationmode sample-hold
attr recordingmode vector
attr source radioModeChanged
attr title "Radio mode"
vector 9 ParcelDeliveryNetwork.gcs.wlan[0].radio radioChannel:vector ETV
attr interpolationmode sample-hold
attr recordingmode vector
attr source radioChannelChanged
attr title "Radio channel"
vector 10 ParcelDeliveryNetwork.drone[0] coordX:vector ETV
attr interpolationmode linear
attr recordingmode vector
attr source xCoord(mobilityPos(mobilityStateChanged))
attr title "coord X"
vector 11 ParcelDeliveryNetwork.drone[0] coordY:vector ETV
attr interpolationmode linear
attr recordingmode vector
attr source yCoord(mobilityPos(mobilityStateChanged))
attr title "coord Y"
vector 12 ParcelDeliveryNetwork.drone[0] coordZ:vector ETV
attr interpolationmode linear
attr recordingmode vector
attr source zCoord(mobilityPos(mobilityStateChanged))
attr title "coord Z"
vector 13 ParcelDeliveryNetwork.gcs.wlan[0].radio receptionState:vector ETV
attr interpolationmode sample-hold
attr recordingmode vector
attr source receptionStateChanged
attr title "Radio reception state"
vector 14 ParcelDeliveryNetwork.gcs.wlan[0].mac.dcf.channelAccess.contention stateChanged:vector ETV
attr enum IDLE,DEFER,IFS_AND_BACKOFF
attr interpolationmode none
attr recordingmode vector
attr title "contention state changed"
attr type enum
vector 15 ParcelDeliveryNetwork.gcs.wlan[0].mac.dcf.recoveryProcedure contentionWindowChanged:vector ETV
attr interpolationmode sample-hold
attr recordingmode vector
attr title "contention window"
0	0	0	0
0	0	0	0
1	0	0	0
1	0	0	0
1	0	0	0
1	0	0	0
1	0	0	0
2	0	0	0
2	0	0	0
2	0	0	0
2	0	0	0
2	0	0	0
3	0	0	0
3	0	0	0
4	0	0	0
4	0	0	0
5	0	0	0
6	0	0	0
7	0	0	0
8	0	0	0
8	0	0	0
8	0	0	2
9	0	0	0
10	0	0	0
10	1	0.2	0
10	2	0.4	0
10	3	0.6	0
10	4	0.8	0
10	5	1	0
10	6	1.2	0
10	7	1.4	0
10	8	1.6	0
10	9	1.8	0
10	10	2	0
10	11	2.012999413704	0
10	12	2.212999413704	0
10	13	2.412999413704	0
10	14	2.612999413704	0
10	15	2.812999413704	0
10	16	3.012999413704	0
10	17	3.212999413704	0
10	18	3.412999413704	0
10	19	3.612999413704	0
10	20	3.77118731708	0
10	21	3.97118731708	0
10	22	4.17118731708	0
10	23	4.37118731708	0
10	24	4.57118731708	0
10	25	4.77118731708	0
10	26	4.97118731708	0
10	27	5.17118731708	0
10	28	5.37118731708	0
10	29	5.57118731708	0
10	30	5.77118731708	0
10	31	5.97118731708	0
10	32	6.17118731708	0
10	33	6.208436855582	0
10	34	6.408436855582	0
10	35	6.608436855582	0
10	36	6.808436855582	0
10	37	7.008436855582	0
10	38	7.208436855582	0
10	39	7.408436855582	0
10	40	7.608436855582	0
10	41	7.808436855582	0
10	42	8.008436855582	0
10	43	8.208436855582	0
10	44	8.408436855582	0
10	45	8.608436855582	0
10	46	8.808436855582	0
10	47	8.901455950576	0
10	48	9.101455950576	0
10	49	9.301455950576	0
10	50	9.501455950576	0
10	51	9.701455950576	0
10	52	9.901455950576	0
10	53	10.101455950576	0
10	54	10.301455950576	0
10	55	10.501455950576	0
10	56	10.701455950576	0
10	57	10.735884950993	0
10	58	10.935884950993	0
10	59	11.135884950993	0
10	60	11.335884950993	0
10	61	11.535884950993	0
10	62	11.735884950993	0
10	63	11.935884950993	0
10	64	12.135884950993	0
10	65	12.16873577684	0
10	66	12.36873577684	0
10	67	12.56873577684	0
10	68	12.76873577684	0
10	69	12.96873577684	0
10	70	13.16873577684	0
10	71	13.36873577684	0
10	72	13.56873577684	0
10	73	13.76873577684	0
10	74	13.96873577684	0
10	75	14.16873577684	0
10	76	14.36873577684	0
10	77	14.449341774487	0
10	78	14.649341774487	0
10	79	14.849341774487	0
10	80	15.049341774487	0
10	81	15.249341774487	0
10	82	15.449341774487	0
10	83	15.649341774487	0
10	84	15.849341774487	0
10	85	16.049341774487	0
10	86	16.161755266419	0
10	87	16.361755266419	0
10	88	16.561755266419	0
10	89	16.761755266419	0
10	90	16.961755266419	0
10	91	17.161755266419	0
10	92	17.361755266419	0
10	93	17.368377139762	0
10	94	17.568377139762	0
10	95	17.768377139762	0
10	96	17.968377139762	0
10	97	18.168377139762	0
10	98	18.368377139762	0
10	99	18.568377139762	0
10	100	18.749452895177	0
10	101	18.949452895177	0
10	102	19.149452895177	0
10	103	19.349452895177	0
10	104	19.549452895177	0
10	105	19.749452895177	0
10	106	19.949452895177	0
10	107	20.149452895177	0
10	108	20.349452895177	0
10	109	20.549452895177	0
10	110	20.749452895177	0
10	111	20.949452895177	0
10	112	21.149452895177	0
10	113	21.290480762733	0
10	114	21.490480762733	0
10	115	21.690480762733	0
10	116	21.890480762733	0
10	117	22.090480762733	0
10	118	22.283279151497	0
10	119	22.483279151497	0
10	120	22.683279151497	0
10	121	22.883279151497	0
10	122	23.083279151497	0
10	123	23.283279151497	0
10	124	23.483279151497	0
10	125	23.683279151497	0
10	126	23.883279151497	0
10	127	23.985993477305	0
10	128	24.185993477305	0
10	129	24.385993477305	0
10	130	24.585993477305	0
10	131	24.785993477305	0
10	132	24.985993477305	0
10	133	25.185993477305	0
10	134	25.385993477305	0
10	135	25.585993477305	0
10	136	25.710400903096	0
10	137	25.910400903096	0
10	138	26.110400903096	0
10	139	26.310400903096	0
10	140	26.510400903096	0
10	141	26.710400903096	0
10	142	26.910400903096	0
10	143	27.110400903096	0
10	144	27.310400903096	0
10	145	27.510400903096	0
10	146	27.710400903096	0
10	147	27.910400903096	0
10	148	28.110400903096	0
10	149	28.266032485995	0
10	150	28.466032485995	0
10	151	28.666032485995	0
10	152	28.866032485995	0
10	153	29.066032485995	0
10	154	29.266032485995	0
10	155	29.466032485995	0
10	156	29.666032485995	0
10	157	29.866032485995	0
10	158	30.066032485995	0
10	159	30.266032485995	0
10	160	30.466032485995	0
10	161	30.666032485995	0
10	162	30.817158166534	0
10	163	31.017158166534	0
10	164	31.217158166534	0
10	165	31.417158166534	0
10	166	31.617158166534	0
10	167	31.817158166534	0
10	168	32.017158166534	0
10	169	32.217158166534	0
10	170	32.417158166534	0
10	171	32.453253268174	0
10	172	32.653253268174	0
10	173	32.853253268174	0
10	174	33.053253268174	0
10	175	33.253253268174	0
10	176	33.453253268174	0
10	177	33.653253268174	0
10	178	33.853253268174	0
10	179	34.053253268174	0
10	180	34.253253268174	0
10	181	34.453253268174	0
10	182	34.653253268174	0
10	183	34.853253268174	0
10	184	34.985054230184	0
10	185	35.185054230184	0
10	186	35.385054230184	0
10	187	35.585054230184	0
10	188	35.785054230184	0
10	189	35.985054230184	0
10	190	36.185054230184	0
10	191	36.385054230184	0
10	192	36.585054230184	0
10	193	36.785054230184	0
10	194	36.985054230184	0
10	195	36.996125528903	0
10	196	37.196125528903	0
10	197	37.396125528903	0
10	198	37.596125528903	0
10	199	37.796125528903	0
10	200	37.996125528903	0
10	201	38.196125528903	0
10	202	38.396125528903	0
10	203	38.596125528903	0
10	204	38.796125528903	0
10	205	38.996125528903	0
10	206	39.166644231045	0
10	207	39.366644231045	0
10	208	39.566644231045	0
10	209	39.766644231045	0
10	210	39.966644231045	0
10	211	40.166644231045	0
10	212	40.366644231045	0
10	213	40.566644231045	0
10	214	40.766644231045	0
10	215	40.966644231045	0
10	216	41.166644231045	0
10	217	41.240468439744	0
10	218	41.440468439744	0
10	219	41.640468439744	0
10	220	41.840468439744	0
10	221	42.040468439744	0
10	222	42.240468439744	0
10	223	42.440468439744	0
10	224	42.640468439744	0
10	225	42.840468439744	0
10	226	43.040468439744	0
10	227	43.170625770252	0
10	228	43.370625770252	0
10	229	43.570625770252	0
10	230	43.770625770252	0
10	231	43.970625770252	0
10	232	44.170625770252	0
10	233	44.370625770252	0
10	234	44.570625770252	0
10	235	44.577253651728	0
10	236	44.777253651728	0
10	237	44.977253651728	0
10	238	45.177253651728	0
10	239	45.377253651728	0
10	240	45.516725308236	0
10	241	45.716725308236	0
10	242	45.916725308236	0
10	243	46.116725308236	0
10	244	46.316725308236	0
10	245	46.516725308236	0
10	246	46.716725308236	0
10	247	46.916725308236	0
10	248	47.116725308236	0
10	249	47.160571033289	0
10	250	47.360571033289	0
10	251	47.560571033289	0
10	252	47.760571033289	0
10	253	47.960571033289	0
10	254	48.160571033289	0
10	255	48.360571033289	0
10	256	48.560571033289	0
10	257	48.607897663306	0
10	258	48.807897663306	0
10	259	49.007897663306	0
10	260	49.207897663306	0
10	261	49.407897663306	0
10	262	49.607897663306	0
10	263	49.807897663306	0
10	264	50.007897663306	0
10	265	50.207897663306	0
10	266	50.407897663306	0
10	267	50.439164238729	0
10	268	50.639164238729	0
10	269	50.839164238729	0
10	270	51.039164238729	0
10	271	51.239164238729	0
10	272	51.382060498643	0
10	273	51.582060498643	0
10	274	51.782060498643	0
10	275	51.982060498643	0
10	276	52.182060498643	0
10	277	52.382060498643	0
10	278	52.582060498643	0
10	279	52.714126036083	0
10	280	52.914126036083	0
10	281	53.114126036083	0
10	282	53.314126036083	0
10	283	53.514126036083	0
10	284	53.714126036083	0
10	285	53.914126036083	0
10	286	54.114126036083	0
10	287	54.314126036083	0
10	288	54.423883160554	0
10	289	54.623883160554	0
10	290	54.823883160554	0
10	291	55.023883160554	0
10	292	55.223883160554	0
10	293	55.423883160554	0
10	294	55.623883160554	0
10	295	55.823883160554	0
10	296	56.023883160554	0
10	297	56.061670789944	0
10	298	56.261670789944	0
10	299	56.461670789944	0
10	300	56.661670789944	0
10	301	56.861670789944	0
10	302	57.061670789944	0
10	303	57.261670789944	0
10	304	57.461670789944	0
10	305	57.618527420588	0
10	306	57.818527420588	0
10	307	58.018527420588	0
10	308	58.218527420588	0
10	309	58.418527420588	0
10	310	58.618527420588	0
10	311	58.818527420588	0
10	312	59.018527420588	0
10	313	59.218527420588	0
10	314	59.418527420588	0
10	315	59.475494046078	0
10	316	59.675494046078	0
10	317	59.875494046078	0
10	318	60.075494046078	0
10	319	60.275494046078	0
10	320	60.475494046078	0
10	321	60.675494046078	0
10	322	60.875494046078	0
10	323	60.947847498112	0
10	324	61.147847498112	0
10	325	61.347847498112	0
10	326	61.547847498112	0
10	327	61.747847498112	0
10	328	61.947847498112	0
10	329	62.147847498112	0
10	330	62.347847498112	0
10	331	62.547847498112	0
10	332	62.747847498112	0
10	333	62.748015567901	0
10	334	62.948015567901	0
10	335	63.148015567901	0
10	336	63.348015567901	0
10	337	63.548015567901	0
10	338	63.748015567901	0
10	339	63.948015567901	0
10	340	64.148015567901	0
10	341	64.348015567901	0
10	342	64.548015567901	0
10	343	64.748015567901	0
10	344	64.825567697702	0
10	345	65.025567697702	0
10	346	65.225567697702	0
10	347	65.425567697702	0
10	348	65.625567697702	0
10	349	65.825567697702	0
10	350	66.025567697702	0
10	351	66.225567697702	0
10	352	66.425567697702	0
10	353	66.625567697702	0
10	354	66.825567697702	0
10	355	67.025567697702	0
10	356	67.225567697702	0
10	357	67.425567697702	0
10	358	67.625567697702	0
10	359	67.643444881679	0
10	360	67.843444881679	0
10	361	68.043444881679	0
10	362	68.243444881679	0
10	363	68.443444881679	0
10	364	68.643444881679	0
10	365	68.843444881679	0
10	366	69.043444881679	0
10	367	69.243444881679	0
10	368	69.443444881679	0
10	369	69.643444881679	0
10	370	69.843444881679	0
10	371	69.898168742814	0
10	372	70.098168742814	0
10	373	70.298168742814	0
10	374	70.498168742814	0
10	375	70.698168742814	0
10	376	70.898168742814	0
10	377	71.098168742814	0
10	378	71.298168742814	0
10	379	71.498168742814	0
10	380	71.698168742814	0
10	381	71.898168742814	0
10	382	71.918146742428	0
10	383	72.118146742428	0
10	384	72.318146742428	0
10	385	72.518146742428	0
10	386	72.718146742428	0
10	387	72.918146742428	0
10	388	73.118146742428	0
10	389	73.318146742428	0
10	390	73.518146742428	0
10	391	73.718146742428	0
10	392	73.918146742428	0
10	393	74.118146742428	0
10	394	74.318146742428	0
10	395	74.458430389162	0
10	396	74.658430389162	0
10	397	74.858430389162	0
10	398	75.058430389162	0
10	399	75.258430389162	0
10	400	75.458430389162	0
10	401	75.658430389162	0
10	402	75.858430389162	0
10	403	76.058430389162	0
10	404	76.258430389162	0
10	405	76.458430389162	0
10	406	76.658430389162	0
10	407	76.858430389162	0
10	408	76.885855602993	0
10	409	77.085855602993	0
10	410	77.285855602993	0
10	411	77.485855602993	0
10	412	77.685855602993	0
10	413	77.885855602993	0
10	414	78.085855602993	0
10	415	78.285855602993	0
10	416	78.485855602993	0
10	417	78.685855602993	0
10	418	78.885855602993	0
10	419	78.945110546823	0
10	420	79.145110546823	0
10	421	79.345110546823	0
10	422	79.545110546823	0
10	423	79.745110546823	0
10	424	79.945110546823	0
11	0	0	0
11	1	0.2	0
11	2	0.4	0
11	3	0.6	0
11	4	0.8	0
11	5	1	0
11	6	1.2	0
11	7	1.4	0
11	8	1.6	0
11	9	1.8	0
11	10	2	0
11	11	2.012999413704	0
11	12	2.212999413704	0
11	13	2.412999413704	0
11	14	2.612999413704	0
11	15	2.812999413704	0
11	16	3.012999413704	0
11	17	3.212999413704	0
11	18	3.412999413704	0
11	19	3.612999413704	0
11	20	3.77118731708	0
11	21	3.97118731708	0
11	22	4.17118731708	0
11	23	4.37118731708	0
11	24	4.57118731708	0
11	25	4.77118731708	0
11	26	4.97118731708	0
11	27	5.17118731708	0
11	28	5.37118731708	0
11	29	5.57118731708	0
11	30	5.77118731708	0
11	31	5.97118731708	0
11	32	6.17118731708	0
11	33	6.208436855582	0
11	34	6.408436855582	0
11	35	6.608436855582	0
11	36	6.808436855582	0
11	37	7.008436855582	0
11	38	7.208436855582	0
11	39	7.408436855582	0
11	40	7.608436855582	0
11	41	7.808436855582	0
11	42	8.008436855582	0
11	43	8.208436855582	0
11	44	8.408436855582	0
11	45	8.608436855582	0
11	46	8.808436855582	0
11	47	8.901455950576	0
11	48	9.101455950576	0
11	49	9.301455950576	0
11	50	9.501455950576	0
11	51	9.701455950576	0
11	52	9.901455950576	0
11	53	10.101455950576	0
11	54	10.301455950576	0
11	55	10.501455950576	0
11	56	10.701455950576	0
11	57	10.735884950993	0
11	58	10.935884950993	0
11	59	11.135884950993	0
11	60	11.335884950993	0
11	61	11.535884950993	0
11	62	11.735884950993	0
11	63	11.935884950993	0
11	64	12.135884950993	0
11	65	12.16873577684	0
11	66	12.36873577684	0
11	67	12.56873577684	0
11	68	12.76873577684	0
11	69	12.96873577684	0
11	70	13.16873577684	0
11	71	13.36873577684	0
11	72	13.56873577684	0
11	73	13.76873577684	0
11	74	13.96873577684	0
11	75	14.16873577684	0
11	76	14.36873577684	0
11	77	14.449341774487	0
11	78	14.649341774487	0
11	79	14.849341774487	0
11	80	15.049341774487	0
11	81	15.249341774487	0
11	82	15.449341774487	0
11	83	15.649341774487	0
11	84	15.849341774487	0
11	85	16.049341774487	0
11	86	16.161755266419	0
11	87	16.361755266419	0
11	88	16.561755266419	0
11	89	16.761755266419	0
11	90	16.961755266419	0
11	91	17.161755266419	0
11	92	17.361755266419	0
11	93	17.368377139762	0
11	94	17.568377139762	0
11	95	17.768377139762	0
11	96	17.968377139762	0
11	97	18.168377139762	0
11	98	18.368377139762	0
11	99	18.568377139762	0
11	100	18.749452895177	0
11	101	18.949452895177	0
11	102	19.149452895177	0
11	103	19.349452895177	0
11	104	19.549452895177	0
11	105	19.749452895177	0
11	106	19.949452895177	0
11	107	20.149452895177	0
11	108	20.349452895177	0
11	109	20.549452895177	0
11	110	20.749452895177	0
11	111	20.949452895177	0
11	112	21.149452895177	0
11	113	21.290480762733	0
11	114	21.490480762733	0
11	115	21.690480762733	0
11	116	21.890480762733	0
11	117	22.090480762733	0
11	118	22.283279151497	0
11	119	22.483279151497	0
11	120	22.683279151497	0
11	121	22.883279151497	0
11	122	23.083279151497	0
11	123	23.283279151497	0
11	124	23.483279151497	0
11	125	23.683279151497	0
11	126	23.883279151497	0
11	127	23.985993477305	0
11	128	24.185993477305	0
11	129	24.385993477305	0
11	130	24.585993477305	0
11	131	24.785993477305	0
11	132	24.985993477305	0
11	133	25.185993477305	0
11	134	25.385993477305	0
11	135	25.585993477305	0
11	136	25.710400903096	0
11	137	25.910400903096	0
11	138	26.110400903096	0
11	139	26.310400903096	0
11	140	26.510400903096	0
11	141	26.710400903096	0
11	142	26.910400903096	0
11	143	27.110400903096	0
11	144	27.310400903096	0
11	145	27.510400903096	0
11	146	27.710400903096	0
11	147	27.910400903096	0
11	148	28.110400903096	0
11	149	28.266032485995	0
11	150	28.466032485995	0
11	151	28.666032485995	0
11	152	28.866032485995	0
11	153	29.066032485995	0
11	154	29.266032485995	0
11	155	29.466032485995	0
11	156	29.666032485995	0
11	157	29.866032485995	0
11	158	30.066032485995	0
11	159	30.266032485995	0
11	160	30.466032485995	0
11	161	30.666032485995	0
11	162	30.817158166534	0
11	163	31.017158166534	0
11	164	31.217158166534	0
11	165	31.417158166534	0
11	166	31.617158166534	0
11	167	31.817158166534	0
11	168	32.017158166534	0
11	169	32.217158166534	0
11	170	32.417158166534	0
11	171	32.453253268174	0
11	172	32.653253268174	0
11	173	32.853253268174	0
11	174	33.053253268174	0
11	175	33.253253268174	0
11	176	33.453253268174	0
11	177	33.653253268174	0
11	178	33.853253268174	0
11	179	34.053253268174	0
11	180	34.253253268174	0
11	181	34.453253268174	0
11	182	34.653253268174	0
11	183	34.853253268174	0
11	184	34.985054230184	0
11	185	35.185054230184	0
11	186	35.385054230184	0
11	187	35.585054230184	0
11	188	35.785054230184	0
11	189	35.985054230184	0
11	190	36.185054230184	0
11	191	36.385054230184	0
11	192	36.585054230184	0
11	193	36.785054230184	0
11	194	36.985054230184	0
11	195	36.996125528903	0
11	196	37.196125528903	0
11	197	37.396125528903	0
11	198	37.596125528903	0
11	199	37.796125528903	0
11	200	37.996125528903	0
11	201	38.196125528903	0
11	202	38.396125528903	0
11	203	38.596125528903	0
11	204	38.796125528903	0
11	205	38.996125528903	0
11	206	39.166644231045	0
11	207	39.366644231045	0
11	208	39.566644231045	0
11	209	39.766644231045	0
11	210	39.966644231045	0
11	211	40.166644231045	0
11	212	40.366644231045	0
11	213	40.566644231045	0
11	214	40.766644231045	0
11	215	40.966644231045	0
11	216	41.166644231045	0
11	217	41.240468439744	0
11	218	41.440468439744	0
11	219	41.640468439744	0
11	220	41.840468439744	0
11	221	42.040468439744	0
11	222	42.240468439744	0
11	223	42.440468439744	0
11	224	42.640468439744	0
11	225	42.840468439744	0
11	226	43.040468439744	0
11	227	43.170625770252	0
11	228	43.370625770252	0
11	229	43.570625770252	0
11	230	43.770625770252	0
11	231	43.970625770252	0
11	232	44.170625770252	0
11	233	44.370625770252	0
11	234	44.570625770252	0
11	235	44.577253651728	0
11	236	44.777253651728	0
11	237	44.977253651728	0
11	238	45.177253651728	0
11	239	45.377253651728	0
11	240	45.516725308236	0
11	241	45.716725308236	0
11	242	45.916725308236	0
11	243	46.116725308236	0
11	244	46.316725308236	0
11	245	46.516725308236	0
11	246	46.716725308236	0
11	247	46.916725308236	0
11	248	47.116725308236	0
11	249	47.160571033289	0
11	250	47.360571033289	0
11	251	47.560571033289	0
11	252	47.760571033289	0
11	253	47.960571033289	0
11	254	48.160571033289	0
11	255	48.360571033289	0
11	256	48.560571033289	0
11	257	48.607897663306	0
11	258	48.807897663306	0
11	259	49.007897663306	0
11	260	49.207897663306	0
11	261	49.407897663306	0
11	262	49.607897663306	0
11	263	49.807897663306	0
11	264	50.007897663306	0
11	265	50.207897663306	0
11	266	50.407897663306	0
11	267	50.439164238729	0
11	268	50.639164238729	0
11	269	50.839164238729	0
11	270	51.039164238729	0
11	271	51.239164238729	0
11	272	51.382060498643	0
11	273	51.582060498643	0
11	274	51.782060498643	0
11	275	51.982060498643	0
11	276	52.182060498643	0
11	277	52.382060498643	0
11	278	52.582060498643	0
11	279	52.714126036083	0
11	280	52.914126036083	0
11	281	53.114126036083	0
11	282	53.314126036083	0
11	283	53.514126036083	0
11	284	53.714126036083	0
11	285	53.914126036083	0
11	286	54.114126036083	0
11	287	54.314126036083	0
11	288	54.423883160554	0
11	289	54.623883160554	0
11	290	54.823883160554	0
11	291	55.023883160554	0
11	292	55.223883160554	0
11	293	55.423883160554	0
11	294	55.623883160554	0
11	295	55.823883160554	0
11	296	56.023883160554	0
11	297	56.061670789944	0
11	298	56.261670789944	0
11	299	56.461670789944	0
11	300	56.661670789944	0
11	301	56.861670789944	0
11	302	57.061670789944	0
11	303	57.261670789944	0
11	304	57.461670789944	0
11	305	57.618527420588	0
11	306	57.818527420588	0
11	307	58.018527420588	0
11	308	58.218527420588	0
11	309	58.418527420588	0
11	310	58.618527420588	0
11	311	58.818527420588	0
11	312	59.018527420588	0
11	313	59.218527420588	0
11	314	59.418527420588	0
11	315	59.475494046078	0
11	316	59.675494046078	0
11	317	59.875494046078	0
11	318	60.075494046078	0
11	319	60.275494046078	0
11	320	60.475494046078	0
11	321	60.675494046078	0
11	322	60.875494046078	0
11	323	60.947847498112	0
11	324	61.147847498112	0
11	325	61.347847498112	0
11	326	61.547847498112	0
11	327	61.747847498112	0
11	328	61.947847498112	0
11	329	62.147847498112	0
11	330	62.347847498112	0
11	331	62.547847498112	0
11	332	62.747847498112	0
11	333	62.748015567901	0
11	334	62.948015567901	0
11	335	63.148015567901	0
11	336	63.348015567901	0
11	337	63.548015567901	0
11	338	63.748015567901	0
11	339	63.948015567901	0
11	340	64.148015567901	0
11	341	64.348015567901	0
11	342	64.548015567901	0
11	343	64.748015567901	0
11	344	64.825567697702	0
11	345	65.025567697702	0
11	346	65.225567697702	0
11	347	65.425567697702	0
11	348	65.625567697702	0
11	349	65.825567697702	0
11	350	66.025567697702	0
11	351	66.225567697702	0
11	352	66.425567697702	0
11	353	66.625567697702	0
11	354	66.825567697702	0
11	355	67.025567697702	0
11	356	67.225567697702	0
11	357	67.425567697702	0
11	358	67.625567697702	0
11	359	67.643444881679	0
11	360	67.843444881679	0
11	361	68.043444881679	0
11	362	68.243444881679	0
11	363	68.443444881679	0
11	364	68.643444881679	0
11	365	68.843444881679	0
11	366	69.043444881679	0
11	367	69.243444881679	0
11	368	69.443444881679	0
11	369	69.643444881679	0
11	370	69.843444881679	0
11	371	69.898168742814	0
11	372	70.098168742814	0
11	373	70.298168742814	0
11	374	70.498168742814	0
11	375	70.698168742814	0
11	376	70.898168742814	0
11	377	71.098168742814	0
11	378	71.298168742814	0
11	379	71.498168742814	0
11	380	71.698168742814	0
11	381	71.898168742814	0
11	382	71.918146742428	0
11	383	72.118146742428	0
11	384	72.318146742428	0
11	385	72.518146742428	0
11	386	72.718146742428	0
11	387	72.918146742428	0
11	388	73.118146742428	0
11	389	73.318146742428	0
11	390	73.518146742428	0
11	391	73.718146742428	0
11	392	73.918146742428	0
11	393	74.118146742428	0
11	394	74.318146742428	0
11	395	74.458430389162	0
11	396	74.658430389162	0
11	397	74.858430389162	0
11	398	75.058430389162	0
11	399	75.258430389162	0
11	400	75.458430389162	0
11	401	75.658430389162	0
11	402	75.858430389162	0
11	403	76.058430389162	0
11	404	76.258430389162	0
11	405	76.458430389162	0
11	406	76.658430389162	0
11	407	76.858430389162	0
11	408	76.885855602993	0
11	409	77.085855602993	0
11	410	77.285855602993	0
11	411	77.485855602993	0
11	412	77.685855602993	0
11	413	77.885855602993	0
11	414	78.085855602993	0
11	415	78.285855602993	0
11	416	78.485855602993	0
11	417	78.685855602993	0
11	418	78.885855602993	0
11	419	78.945110546823	0
11	420	79.145110546823	0
11	421	79.345110546823	0
11	422	79.545110546823	0
11	423	79.745110546823	0
11	424	79.945110546823	0
12	0	0	0
12	1	0.2	0
12	2	0.4	0
12	3	0.6	0
12	4	0.8	0
12	5	1	0
12	6	1.2	0
12	7	1.4	0
12	8	1.6	0
12	9	1.8	0
12	10	2	0
12	11	2.012999413704	0
12	12	2.212999413704	0
12	13	2.412999413704	0
12	14	2.612999413704	0
12	15	2.812999413704	0
12	16	3.012999413704	0
12	17	3.212999413704	0
12	18	3.412999413704	0
12	19	3.612999413704	0
12	20	3.77118731708	0
12	21	3.97118731708	0
12	22	4.17118731708	0
12	23	4.37118731708	0
12	24	4.57118731708	0
12	25	4.77118731708	0
12	26	4.97118731708	0
12	27	5.17118731708	0
12	28	5.37118731708	0
12	29	5.57118731708	0
12	30	5.77118731708	0
12	31	5.97118731708	0
12	32	6.17118731708	0
12	33	6.208436855582	0
12	34	6.408436855582	0
12	35	6.608436855582	0
12	36	6.808436855582	0
12	37	7.008436855582	0
12	38	7.208436855582	0
12	39	7.408436855582	0
12	40	7.608436855582	0
12	41	7.808436855582	0
12	42	8.008436855582	0
12	43	8.208436855582	0
12	44	8.408436855582	0
12	45	8.608436855582	0
12	46	8.808436855582	0
12	47	8.901455950576	0
12	48	9.101455950576	0
12	49	9.301455950576	0
12	50	9.501455950576	0
12	51	9.701455950576	0
12	52	9.901455950576	0
12	53	10.101455950576	0
12	54	10.301455950576	0
12	55	10.501455950576	0
12	56	10.701455950576	0
12	57	10.735884950993	0
12	58	10.935884950993	0
12	59	11.135884950993	0
12	60	11.335884950993	0
12	61	11.535884950993	0
12	62	11.735884950993	0
12	63	11.935884950993	0
12	64	12.135884950993	0
12	65	12.16873577684	0
12	66	12.36873577684	0
12	67	12.56873577684	0
12	68	12.76873577684	0
12	69	12.96873577684	0
12	70	13.16873577684	0
12	71	13.36873577684	0
12	72	13.56873577684	0
12	73	13.76873577684	0
12	74	13.96873577684	0
12	75	14.16873577684	0
12	76	14.36873577684	0
12	77	14.449341774487	0
12	78	14.649341774487	0
12	79	14.849341774487	0
12	80	15.049341774487	0
12	81	15.249341774487	0
12	82	15.449341774487	0
12	83	15.649341774487	0
12	84	15.849341774487	0
12	85	16.049341774487	0
12	86	16.161755266419	0
12	87	16.361755266419	0
12	88	16.561755266419	0
12	89	16.761755266419	0
12	90	16.961755266419	0
12	91	17.161755266419	0
12	92	17.361755266419	0
12	93	17.368377139762	0
12	94	17.568377139762	0
12	95	17.768377139762	0
12	96	17.968377139762	0
12	97	18.168377139762	0
12	98	18.368377139762	0
12	99	18.568377139762	0
12	100	18.749452895177	0
12	101	18.949452895177	0
12	102	19.149452895177	0
12	103	19.349452895177	0
12	104	19.549452895177	0
12	105	19.749452895177	0
12	106	19.949452895177	0
12	107	20.149452895177	0
12	108	20.349452895177	0
12	109	20.549452895177	0
12	110	20.749452895177	0
12	111	20.949452895177	0
12	112	21.149452895177	0
12	113	21.290480762733	0
12	114	21.490480762733	0
12	115	21.690480762733	0
12	116	21.890480762733	0
12	117	22.090480762733	0
12	118	22.283279151497	0
12	119	22.483279151497	0
12	120	22.683279151497	0
12	121	22.883279151497	0
12	122	23.083279151497	0
12	123	23.283279151497	0
12	124	23.483279151497	0
12	125	23.683279151497	0
12	126	23.883279151497	0
12	127	23.985993477305	0
12	128	24.185993477305	0
12	129	24.385993477305	0
12	130	24.585993477305	0
12	131	24.785993477305	0
12	132	24.985993477305	0
12	133	25.185993477305	0
12	134	25.385993477305	0
12	135	25.585993477305	0
12	136	25.710400903096	0
12	137	25.910400903096	0
12	138	26.110400903096	0
12	139	26.310400903096	0
12	140	26.510400903096	0
12	141	26.710400903096	0
12	142	26.910400903096	0
12	143	27.110400903096	0
12	144	27.310400903096	0
12	145	27.510400903096	0
12	146	27.710400903096	0
12	147	27.910400903096	0
12	148	28.110400903096	0
12	149	28.266032485995	0
12	150	28.466032485995	0
12	151	28.666032485995	0
12	152	28.866032485995	0
12	153	29.066032485995	0
12	154	29.266032485995	0
12	155	29.466032485995	0
12	156	29.666032485995	0
12	157	29.866032485995	0
12	158	30.066032485995	0
12	159	30.266032485995	0
12	160	30.466032485995	0
12	161	30.666032485995	0