version 3
run CNPF-17-20240912-08:19:27-54225
attr configname CNPF
attr datetime 20240912-08:19:27
attr datetimef 20240912-081927
attr experiment CNPF
attr inifile omnetpp.ini
attr iterationvars $0=20
attr iterationvarsd 20
attr iterationvarsf 20-
attr measurement $0=20
attr network ParcelDeliveryNetwork
attr processid 54225
attr repetition 7
attr replication #7
attr resultdir results
attr runnumber 17
attr seedset 17
config image-path ../inet/images
config network ParcelDeliveryNetwork
config description "1 drones, 30 destinations, 30 parcels, "
config *.numdrones 1
config **.drone*.mobility.typename DroneNetMob
config **.drone[*].mobility.ndst 20
config **.drone[*].mobility.nd 8
config **.drone[*].mobility.npar 30
config **.drone[*].mobility.initFromDisplayString false
config **.drone[*].mobility.changeInterval "truncnormal(2s, 0.5s)"
config **.drone[*].mobility.angleDelta "normal(0deg, 30deg)"
config **.drone[*].mobility.speed 10mps
config **.drone[*].mobility.remainingBattery 480
config **.drone[*].mobility.weightCapacity 100
config **.drone[*].mobility.parcelSelectionMethod 0
config **.drone[*].mobility.initialX 0m
config **.drone[*].mobility.initialY 0m
config **.drone[*].mobility.initialZ 0m
config repeat 10
config sim-time-limit 80second
config **.constraintAreaMinX 0m
config **.constraintAreaMinY 0m
config **.constraintAreaMinZ 0m
config **.constraintAreaMaxX 600m
config **.constraintAreaMaxY 400m
config **.constraintAreaMaxZ 0m
config **.updateInterval 0.2s

vector 0 ParcelDeliveryNetwork.gcs.wlan[0].mac.dcf frameSequenceActive:vector ETV
attr autoWarmupFilter false
attr interpolationmode sample-hold
attr recordingmode vector
attr source warmup(count(frameSequenceStarted)-count(frameSequenceFinished))
attr title "frame sequence active"
vector 1 ParcelDeliveryNetwork.gcs.wlan[0].mac.dcf.channelAccess.pendingQueue queueLength:vector ETV
attr autoWarmupFilter false
attr interpolationmode sample-hold
attr recordingmode vector
attr source "warmup(atomic(constant0(packetPushEnded) + count(packetPushStarted) - count(packetPulled) - count(packetRemoved) - count(packetDropped)))"
attr title "queue length"
attr unit pk
vector 2 ParcelDeliveryNetwork.gcs.wlan[0].mac.dcf.channelAccess.pendingQueue queueBitLength:vector ETV
attr autoWarmupFilter false
attr interpolationmode sample-hold
attr recordingmode vector
attr source "warmup(atomic(constant0(packetPushEnded) + sum(packetLength(packetPushStarted)) - sum(packetLength(packetPulled)) - sum(packetLength(packetRemoved)) - sum(packetLength(packetDropped))))"
attr title "queue bit length"
attr unit b
vector 3 ParcelDeliveryNetwork.gcs.wlan[0].mac.dcf.channelAccess.inProgressFrames queueLength:vector ETV
attr autoWarmupFilter false
attr interpolationmode sample-hold
attr recordingmode vector
attr source "warmup(count(packetEnqueued) - count(packetDequeued))"
attr title "queue length"
vector 4 ParcelDeliveryNetwork.gcs.wlan[0].mac.dcf.channelAccess.contention backoffActive:vector ETV
attr autoWarmupFilter false
attr interpolationmode sample-hold
attr recordingmode vector
attr source warmup(count(backoffStarted)-count(backoffStopped))
attr title "backoff active"
vector 5 ParcelDeliveryNetwork.gcs.udp passedUpPk:vector(count) ETV
attr interpolationmode none
attr recordingmode vector(count)
attr source packetSentToUpper
attr title "packets passed up, count"
vector 6 ParcelDeliveryNetwork.gcs.udp droppedPkWrongPort:vector(count) ETV
attr interpolationmode none
attr recordingmode vector(count)
attr source packetDropReasonIsNoPortFound(packetDropped)
attr title "packets dropped (wrong port), count"
vector 7 ParcelDeliveryNetwork.gcs.udp droppedPkBadChecksum:vector(count) ETV
attr interpolationmode none
attr recordingmode vector(count)
attr source packetDropReasonIsIncorrectlyReceived(packetDropped)
attr title "packets dropped (checksum error), count"
vector 8 ParcelDeliveryNetwork.gcs.wlan[0].radio radioMode:vector ETV
attr interpolationmode sample-hold
attr recordingmode vector
attr source radioModeChanged
attr title "Radio mode"
vector 9 ParcelDeliveryNetwork.gcs.wlan[0].radio radioChannel:vector ETV
attr interpolationmode sample-hold
attr recordingmode vector
attr source radioChannelChanged
attr title "Radio channel"
vector 10 ParcelDeliveryNetwork.drone[0] coordX:vector ETV
attr interpolationmode linear
attr recordingmode vector
attr source xCoord(mobilityPos(mobilityStateChanged))
attr title "coord X"
vector 11 ParcelDeliveryNetwork.drone[0] coordY:vector ETV
attr interpolationmode linear
attr recordingmode vector
attr source yCoord(mobilityPos(mobilityStateChanged))
attr title "coord Y"
vector 12 ParcelDeliveryNetwork.drone[0] coordZ:vector ETV
attr interpolationmode linear
attr recordingmode vector
attr source zCoord(mobilityPos(mobilityStateChanged))
attr title "coord Z"
vector 13 ParcelDeliveryNetwork.gcs.wlan[0].radio receptionState:vector ETV
attr interpolationmode sample-hold
attr recordingmode vector
attr source receptionStateChanged
attr title "Radio reception state"
vector 14 ParcelDeliveryNetwork.gcs.wlan[0].mac.dcf.channelAccess.contention stateChanged:vector ETV
attr enum IDLE,DEFER,IFS_AND_BACKOFF
attr interpolationmode none
attr recordingmode vector
attr title "contention state changed"
attr type enum
vector 15 ParcelDeliveryNetwork.gcs.wlan[0].mac.dcf.recoveryProcedure contentionWindowChanged:vector ETV
attr interpolationmode sample-hold
attr recordingmode vector
attr title "contention window"
0	0	0	0
0	0	0	0
1	0	0	0
1	0	0	0
1	0	0	0
1	0	0	0
1	0	0	0
2	0	0	0
2	0	0	0
2	0	0	0
2	0	0	0
2	0	0	0
3	0	0	0
3	0	0	0
4	0	0	0
4	0	0	0
5	0	0	0
6	0	0	0
7	0	0	0
8	0	0	0
8	0	0	0
8	0	0	2
9	0	0	0
10	0	0	0
10	1	0.2	0
10	2	0.4	0
10	3	0.6	0
10	4	0.8	0
10	5	1	0
10	6	1.2	0
10	7	1.4	0
10	8	1.6	0
10	9	1.8	0
10	10	2	0
10	11	2.2	0
10	12	2.249727181131	0
10	13	2.449727181131	0
10	14	2.649727181131	0
10	15	2.849727181131	0
10	16	3.049727181131	0
10	17	3.249727181131	0
10	18	3.449727181131	0
10	19	3.649727181131	0
10	20	3.849727181131	0
10	21	4.049727181131	0
10	22	4.249727181131	0
10	23	4.315256610347	0
10	24	4.515256610347	0
10	25	4.715256610347	0
10	26	4.915256610347	0
10	27	5.115256610347	0
10	28	5.315256610347	0
10	29	5.515256610347	0
10	30	5.572164984833	0
10	31	5.772164984833	0
10	32	5.972164984833	0
10	33	6.172164984833	0
10	34	6.372164984833	0
10	35	6.572164984833	0
10	36	6.772164984833	0
10	37	6.972164984833	0
10	38	7.172164984833	0
10	39	7.372164984833	0
10	40	7.572164984833	0
10	41	7.772164984833	0
10	42	7.972164984833	0
10	43	8.155195531202	0
10	44	8.355195531202	0
10	45	8.555195531202	0
10	46	8.755195531202	0
10	47	8.955195531202	0
10	48	9.155195531202	0
10	49	9.355195531202	0
10	50	9.555195531202	0
10	51	9.755195531202	0
10	52	9.955195531202	0
10	53	10.155195531202	0
10	54	10.290863376724	0
10	55	10.490863376724	0
10	56	10.690863376724	0
10	57	10.890863376724	0
10	58	11.090863376724	0
10	59	11.290863376724	0
10	60	11.490863376724	0
10	61	11.690863376724	0
10	62	11.842010800976	0
10	63	12.042010800976	0
10	64	12.242010800976	0
10	65	12.442010800976	0
10	66	12.642010800976	0
10	67	12.842010800976	0
10	68	13.042010800976	0
10	69	13.242010800976	0
10	70	13.442010800976	0
10	71	13.642010800976	0
10	72	13.842010800976	0
10	73	13.931930962601	0
10	74	14.131930962601	0
10	75	14.331930962601	0
10	76	14.531930962601	0
10	77	14.731930962601	0
10	78	14.931930962601	0
10	79	15.131930962601	0
10	80	15.331930962601	0
10	81	15.531930962601	0
10	82	15.731930962601	0
10	83	15.931930962601	0
10	84	16.131930962601	0
10	85	16.331930962601	0
10	86	16.38676914718	0
10	87	16.58676914718	0
10	88	16.78676914718	0
10	89	16.98676914718	0
10	90	17.18676914718	0
10	91	17.38676914718	0
10	92	17.58676914718	0
10	93	17.78676914718	0
10	94	17.98676914718	0
10	95	18.18676914718	0
10	96	18.330420825971	0
10	97	18.530420825971	0
10	98	18.730420825971	0
10	99	18.930420825971	0
10	100	19.130420825971	0
10	101	19.330420825971	0
10	102	19.530420825971	0
10	103	19.730420825971	0
10	104	19.930420825971	0
10	105	20.130420825971	0
10	106	20.171405639731	0
10	107	20.371405639731	0
10	108	20.571405639731	0
10	109	20.771405639731	0
10	110	20.971405639731	0
10	111	21.171405639731	0
10	112	21.371405639731	0
10	113	21.571405639731	0
10	114	21.771405639731	0
10	115	21.971405639731	0
10	116	22.171405639731	0
10	117	22.371405639731	0
10	118	22.571405639731	0
10	119	22.771405639731	0
10	120	22.971405639731	0
10	121	23.147133103146	0
10	122	23.347133103146	0
10	123	23.547133103146	0
10	124	23.747133103146	0
10	125	23.947133103146	0
10	126	24.147133103146	0
10	127	24.347133103146	0
10	128	24.547133103146	0
10	129	24.747133103146	0
10	130	24.947133103146	0
10	131	25.147133103146	0
10	132	25.347133103146	0
10	133	25.367329230392	0
10	134	25.567329230392	0
10	135	25.767329230392	0
10	136	25.967329230392	0
10	137	26.167329230392	0
10	138	26.367329230392	0
10	139	26.567329230392	0
10	140	26.767329230392	0
10	141	26.967329230392	0
10	142	27.167329230392	0
10	143	27.205726885548	0
10	144	27.405726885548	0
10	145	27.605726885548	0
10	146	27.805726885548	0
10	147	28.005726885548	0
10	148	28.205726885548	0
10	149	28.405726885548	0
10	150	28.605726885548	0
10	151	28.805726885548	0
10	152	29.005726885548	0
10	153	29.102375572532	0
10	154	29.302375572532	0
10	155	29.502375572532	0
10	156	29.702375572532	0
10	157	29.902375572532	0
10	158	30.102375572532	0
10	159	30.302375572532	0
10	160	30.502375572532	0
10	161	30.702375572532	0
10	162	30.902375572532	0
10	163	31.102375572532	0
10	164	31.302375572532	0
10	165	31.502375572532	0
10	166	31.566652479034	0
10	167	31.766652479034	0
10	168	31.966652479034	0
10	169	32.166652479034	0
10	170	32.366652479034	0
10	171	32.566652479034	0
10	172	32.766652479034	0
10	173	32.966652479034	0
10	174	33.166652479034	0
10	175	33.359674032254	0
10	176	33.559674032254	0
10	177	33.759674032254	0
10	178	33.959674032254	0
10	179	34.159674032254	0
10	180	34.359674032254	0
10	181	34.559674032254	0
10	182	34.759674032254	0
10	183	34.946023290092	0
10	184	35.146023290092	0
10	185	35.346023290092	0
10	186	35.546023290092	0
10	187	35.746023290092	0
10	188	35.946023290092	0
10	189	36.146023290092	0
10	190	36.346023290092	0
10	191	36.546023290092	0
10	192	36.746023290092	0
10	193	36.946023290092	0
10	194	37.146023290092	0
10	195	37.346023290092	0
10	196	37.353850667425	0
10	197	37.553850667425	0
10	198	37.753850667425	0
10	199	37.953850667425	0
10	200	38.153850667425	0
10	201	38.353850667425	0
10	202	38.553850667425	0
10	203	38.753850667425	0
10	204	38.937620000508	0
10	205	39.137620000508	0
10	206	39.337620000508	0
10	207	39.537620000508	0
10	208	39.737620000508	0
10	209	39.937620000508	0
10	210	40.137620000508	0
10	211	40.303284250413	0
10	212	40.503284250413	0
10	213	40.703284250413	0
10	214	40.903284250413	0
10	215	41.103284250413	0
10	216	41.303284250413	0
10	217	41.503284250413	0
10	218	41.703284250413	0
10	219	41.903284250413	0
10	220	42.103284250413	0
10	221	42.303284250413	0
10	222	42.503284250413	0
10	223	42.703284250413	0
10	224	42.784169176521	0
10	225	42.984169176521	0
10	226	43.184169176521	0
10	227	43.384169176521	0
10	228	43.584169176521	0
10	229	43.784169176521	0
10	230	43.984169176521	0
10	231	44.184169176521	0
10	232	44.383483894064	0
10	233	44.583483894064	0
10	234	44.783483894064	0
10	235	44.983483894064	0
10	236	45.183483894064	0
10	237	45.383483894064	0
10	238	45.583483894064	0
10	239	45.783483894064	0
10	240	45.953615099742	0
10	241	46.153615099742	0
10	242	46.353615099742	0
10	243	46.553615099742	0
10	244	46.753615099742	0
10	245	46.953615099742	0
10	246	47.153615099742	0
10	247	47.353615099742	0
10	248	47.553615099742	0
10	249	47.753615099742	0
10	250	47.872904757696	0
10	251	48.072904757696	0
10	252	48.272904757696	0
10	253	48.472904757696	0
10	254	48.672904757696	0
10	255	48.872904757696	0
10	256	49.072904757696	0
10	257	49.272904757696	0
10	258	49.472904757696	0
10	259	49.672904757696	0
10	260	49.727528130796	0
10	261	49.927528130796	0
10	262	50.127528130796	0
10	263	50.327528130796	0
10	264	50.527528130796	0
10	265	50.727528130796	0
10	266	50.927528130796	0
10	267	51.127528130796	0
10	268	51.327528130796	0
10	269	51.527528130796	0
10	270	51.559998861826	0
10	271	51.759998861826	0
10	272	51.959998861826	0
10	273	52.159998861826	0
10	274	52.359998861826	0
10	275	52.559998861826	0
10	276	52.759998861826	0
10	277	52.959998861826	0
10	278	53.159998861826	0
10	279	53.359998861826	0
10	280	53.559998861826	0
10	281	53.601966733352	0
10	282	53.801966733352	0
10	283	54.001966733352	0
10	284	54.201966733352	0
10	285	54.401966733352	0
10	286	54.601966733352	0
10	287	54.801966733352	0
10	288	55.001966733352	0
10	289	55.201966733352	0
10	290	55.401966733352	0
10	291	55.601966733352	0
10	292	55.787193133704	0
10	293	55.987193133704	0
10	294	56.187193133704	0
10	295	56.387193133704	0
10	296	56.587193133704	0
10	297	56.787193133704	0
10	298	56.987193133704	0
10	299	57.187193133704	0
10	300	57.387193133704	0
10	301	57.455342628943	0
10	302	57.655342628943	0
10	303	57.855342628943	0
10	304	58.055342628943	0
10	305	58.255342628943	0
10	306	58.455342628943	0
10	307	58.655342628943	0
10	308	58.855342628943	0
10	309	59.055342628943	0
10	310	59.255342628943	0
10	311	59.455342628943	0
10	312	59.655342628943	0
10	313	59.711058484263	0
10	314	59.911058484263	0
10	315	60.111058484263	0
10	316	60.311058484263	0
10	317	60.511058484263	0
10	318	60.711058484263	0
10	319	60.911058484263	0
10	320	61.111058484263	0
10	321	61.221423888842	0
10	322	61.421423888842	0
10	323	61.621423888842	0
10	324	61.821423888842	0
10	325	62.021423888842	0
10	326	62.221423888842	0
10	327	62.421423888842	0
10	328	62.621423888842	0
10	329	62.821423888842	0
10	330	63.021423888842	0
10	331	63.221423888842	0
10	332	63.412477436107	0
10	333	63.612477436107	0
10	334	63.812477436107	0
10	335	64.012477436107	0
10	336	64.212477436107	0
10	337	64.412477436107	0
10	338	64.612477436107	0
10	339	64.812477436107	0
10	340	65.012477436107	0
10	341	65.024099041423	0
10	342	65.224099041423	0
10	343	65.424099041423	0
10	344	65.624099041423	0
10	345	65.824099041423	0
10	346	66.024099041423	0
10	347	66.224099041423	0
10	348	66.424099041423	0
10	349	66.624099041423	0
10	350	66.739862923905	0
10	351	66.939862923905	0
10	352	67.139862923905	0
10	353	67.339862923905	0
10	354	67.539862923905	0
10	355	67.739862923905	0
10	356	67.939862923905	0
10	357	68.139862923905	0
10	358	68.339862923905	0
10	359	68.539862923905	0
10	360	68.739862923905	0
10	361	68.939862923905	0
10	362	68.994013779445	0
10	363	69.194013779445	0
10	364	69.394013779445	0
10	365	69.594013779445	0
10	366	69.794013779445	0
10	367	69.994013779445	0
10	368	70.194013779445	0
10	369	70.394013779445	0
10	370	70.594013779445	0
10	371	70.794013779445	0
10	372	70.994013779445	0
10	373	71.036276868275	0
10	374	71.236276868275	0
10	375	71.436276868275	0
10	376	71.636276868275	0
10	377	71.836276868275	0
10	378	72.036276868275	0
10	379	72.236276868275	0
10	380	72.436276868275	0
10	381	72.636276868275	0
10	382	72.836276868275	0
10	383	73.036276868275	0
10	384	73.236276868275	0
10	385	73.436276868275	0
10	386	73.564704902631	0
10	387	73.764704902631	0
10	388	73.964704902631	0
10	389	74.164704902631	0
10	390	74.364704902631	0
10	391	74.564704902631	0
10	392	74.764704902631	0
10	393	74.964704902631	0
10	394	75.164704902631	0
10	395	75.364704902631	0
10	396	75.564704902631	0
10	397	75.764704902631	0
10	398	75.964704902631	0
10	399	75.989167688797	0
10	400	76.189167688797	0
10	401	76.389167688797	0
10	402	76.589167688797	0
10	403	76.789167688797	0
10	404	76.989167688797	0
10	405	77.189167688797	0
10	406	77.389167688797	0
10	407	77.570247014703	0
10	408	77.770247014703	0
10	409	77.970247014703	0
10	410	78.170247014703	0
10	411	78.370247014703	0
10	412	78.570247014703	0
10	413	78.770247014703	0
10	414	78.970247014703	0
10	415	79.170247014703	0
10	416	79.370247014703	0
10	417	79.388562358655	0
10	418	79.588562358655	0
10	419	79.788562358655	0
10	420	79.988562358655	0
11	0	0	0
11	1	0.2	0
11	2	0.4	0
11	3	0.6	0
11	4	0.8	0
11	5	1	0
11	6	1.2	0
11	7	1.4	0
11	8	1.6	0
11	9	1.8	0
11	10	2	0
11	11	2.2	0
11	12	2.249727181131	0
11	13	2.449727181131	0
11	14	2.649727181131	0
11	15	2.849727181131	0
11	16	3.049727181131	0
11	17	3.249727181131	0
11	18	3.449727181131	0
11	19	3.649727181131	0
11	20	3.849727181131	0
11	21	4.049727181131	0
11	22	4.249727181131	0
11	23	4.315256610347	0
11	24	4.515256610347	0
11	25	4.715256610347	0
11	26	4.915256610347	0
11	27	5.115256610347	0
11	28	5.315256610347	0
11	29	5.515256610347	0
11	30	5.572164984833	0
11	31	5.772164984833	0
11	32	5.972164984833	0
11	33	6.172164984833	0
11	34	6.372164984833	0
11	35	6.572164984833	0
11	36	6.772164984833	0
11	37	6.972164984833	0
11	38	7.172164984833	0
11	39	7.372164984833	0
11	40	7.572164984833	0
11	41	7.772164984833	0
11	42	7.972164984833	0
11	43	8.155195531202	0
11	44	8.355195531202	0
11	45	8.555195531202	0
11	46	8.755195531202	0
11	47	8.955195531202	0
11	48	9.155195531202	0
11	49	9.355195531202	0
11	50	9.555195531202	0
11	51	9.755195531202	0
11	52	9.955195531202	0
11	53	10.155195531202	0
11	54	10.290863376724	0
11	55	10.490863376724	0
11	56	10.690863376724	0
11	57	10.890863376724	0
11	58	11.090863376724	0
11	59	11.290863376724	0
11	60	11.490863376724	0
11	61	11.690863376724	0
11	62	11.842010800976	0
11	63	12.042010800976	0
11	64	12.242010800976	0
11	65	12.442010800976	0
11	66	12.642010800976	0
11	67	12.842010800976	0
11	68	13.042010800976	0
11	69	13.242010800976	0
11	70	13.442010800976	0
11	71	13.642010800976	0
11	72	13.842010800976	0
11	73	13.931930962601	0
11	74	14.131930962601	0
11	75	14.331930962601	0
11	76	14.531930962601	0
11	77	14.731930962601	0
11	78	14.931930962601	0
11	79	15.131930962601	0
11	80	15.331930962601	0
11	81	15.531930962601	0
11	82	15.731930962601	0
11	83	15.931930962601	0
11	84	16.131930962601	0
11	85	16.331930962601	0
11	86	16.38676914718	0
11	87	16.58676914718	0
11	88	16.78676914718	0
11	89	16.98676914718	0
11	90	17.18676914718	0
11	91	17.38676914718	0
11	92	17.58676914718	0
11	93	17.78676914718	0
11	94	17.98676914718	0
11	95	18.18676914718	0
11	96	18.330420825971	0
11	97	18.530420825971	0
11	98	18.730420825971	0
11	99	18.930420825971	0
11	100	19.130420825971	0
11	101	19.330420825971	0
11	102	19.530420825971	0
11	103	19.730420825971	0
11	104	19.930420825971	0
11	105	20.130420825971	0
11	106	20.171405639731	0
11	107	20.371405639731	0
11	108	20.571405639731	0
11	109	20.771405639731	0
11	110	20.971405639731	0
11	111	21.171405639731	0
11	112	21.371405639731	0
11	113	21.571405639731	0
11	114	21.771405639731	0
11	115	21.971405639731	0
11	116	22.171405639731	0
11	117	22.371405639731	0
11	118	22.571405639731	0
11	119	22.771405639731	0
11	120	22.971405639731	0
11	121	23.147133103146	0
11	122	23.347133103146	0
11	123	23.547133103146	0
11	124	23.747133103146	0
11	125	23.947133103146	0
11	126	24.147133103146	0
11	127	24.347133103146	0
11	128	24.547133103146	0
11	129	24.747133103146	0
11	130	24.947133103146	0
11	131	25.147133103146	0
11	132	25.347133103146	0
11	133	25.367329230392	0
11	134	25.567329230392	0
11	135	25.767329230392	0
11	136	25.967329230392	0
11	137	26.167329230392	0
11	138	26.367329230392	0
11	139	26.567329230392	0
11	140	26.767329230392	0
11	141	26.967329230392	0
11	142	27.167329230392	0
11	143	27.205726885548	0
11	144	27.405726885548	0
11	145	27.605726885548	0
11	146	27.805726885548	0
11	147	28.005726885548	0
11	148	28.205726885548	0
11	149	28.405726885548	0
11	150	28.605726885548	0
11	151	28.805726885548	0
11	152	29.005726885548	0
11	153	29.102375572532	0
11	154	29.302375572532	0
11	155	29.502375572532	0
11	156	29.702375572532	0
11	157	29.902375572532	0
11	158	30.102375572532	0
11	159	30.302375572532	0
11	160	30.502375572532	0
11	161	30.702375572532	0
11	162	30.902375572532	0
11	163	31.102375572532	0
11	164	31.302375572532	0
11	165	31.502375572532	0
11	166	31.566652479034	0
11	167	31.766652479034	0
11	168	31.966652479034	0
11	169	32.166652479034	0
11	170	32.366652479034	0
11	171	32.566652479034	0
11	172	32.766652479034	0
11	173	32.966652479034	0
11	174	33.166652479034	0
11	175	33.359674032254	0
11	176	33.559674032254	0
11	177	33.759674032254	0
11	178	33.959674032254	0
11	179	34.159674032254	0
11	180	34.359674032254	0
11	181	34.559674032254	0
11	182	34.759674032254	0
11	183	34.946023290092	0
11	184	35.146023290092	0
11	185	35.346023290092	0
11	186	35.546023290092	0
11	187	35.746023290092	0
11	188	35.946023290092	0
11	189	36.146023290092	0
11	190	36.346023290092	0
11	191	36.546023290092	0
11	192	36.746023290092	0
11	193	36.946023290092	0
11	194	37.146023290092	0
11	195	37.346023290092	0
11	196	37.353850667425	0
11	197	37.553850667425	0
11	198	37.753850667425	0
11	199	37.953850667425	0
11	200	38.153850667425	0
11	201	38.353850667425	0
11	202	38.553850667425	0
11	203	38.753850667425	0
11	204	38.937620000508	0
11	205	39.137620000508	0
11	206	39.337620000508	0
11	207	39.537620000508	0
11	208	39.737620000508	0
11	209	39.937620000508	0
11	210	40.137620000508	0
11	211	40.303284250413	0
11	212	40.503284250413	0
11	213	40.703284250413	0
11	214	40.903284250413	0
11	215	41.103284250413	0
11	216	41.303284250413	0
11	217	41.503284250413	0
11	218	41.703284250413	0
11	219	41.903284250413	0
11	220	42.103284250413	0
11	221	42.303284250413	0
11	222	42.503284250413	0
11	223	42.703284250413	0
11	224	42.784169176521	0
11	225	42.984169176521	0
11	226	43.184169176521	0
11	227	43.384169176521	0
11	228	43.584169176521	0
11	229	43.784169176521	0
11	230	43.984169176521	0
11	231	44.184169176521	0
11	232	44.383483894064	0
11	233	44.583483894064	0
11	234	44.783483894064	0
11	235	44.983483894064	0
11	236	45.183483894064	0
11	237	45.383483894064	0
11	238	45.583483894064	0
11	239	45.783483894064	0
11	240	45.953615099742	0
11	241	46.153615099742	0
11	242	46.353615099742	0
11	243	46.553615099742	0
11	244	46.753615099742	0
11	245	46.953615099742	0
11	246	47.153615099742	0
11	247	47.353615099742	0
11	248	47.553615099742	0
11	249	47.753615099742	0
11	250	47.872904757696	0
11	251	48.072904757696	0
11	252	48.272904757696	0
11	253	48.472904757696	0
11	254	48.672904757696	0
11	255	48.872904757696	0
11	256	49.072904757696	0
11	257	49.272904757696	0
11	258	49.472904757696	0
11	259	49.672904757696	0
11	260	49.727528130796	0
11	261	49.927528130796	0
11	262	50.127528130796	0
11	263	50.327528130796	0
11	264	50.527528130796	0
11	265	50.727528130796	0
11	266	50.927528130796	0
11	267	51.127528130796	0
11	268	51.327528130796	0
11	269	51.527528130796	0
11	270	51.559998861826	0
11	271	51.759998861826	0
11	272	51.959998861826	0
11	273	52.159998861826	0
11	274	52.359998861826	0
11	275	52.559998861826	0
11	276	52.759998861826	0
11	277	52.959998861826	0
11	278	53.159998861826	0
11	279	53.359998861826	0
11	280	53.559998861826	0
11	281	53.601966733352	0
11	282	53.801966733352	0
11	283	54.001966733352	0
11	284	54.201966733352	0
11	285	54.401966733352	0
11	286	54.601966733352	0
11	287	54.801966733352	0
11	288	55.001966733352	0
11	289	55.201966733352	0
11	290	55.401966733352	0
11	291	55.601966733352	0
11	292	55.787193133704	0
11	293	55.987193133704	0
11	294	56.187193133704	0
11	295	56.387193133704	0
11	296	56.587193133704	0
11	297	56.787193133704	0
11	298	56.987193133704	0
11	299	57.187193133704	0
11	300	57.387193133704	0
11	301	57.455342628943	0
11	302	57.655342628943	0
11	303	57.855342628943	0
11	304	58.055342628943	0
11	305	58.255342628943	0
11	306	58.455342628943	0
11	307	58.655342628943	0
11	308	58.855342628943	0
11	309	59.055342628943	0
11	310	59.255342628943	0
11	311	59.455342628943	0
11	312	59.655342628943	0
11	313	59.711058484263	0
11	314	59.911058484263	0
11	315	60.111058484263	0
11	316	60.311058484263	0
11	317	60.511058484263	0
11	318	60.711058484263	0
11	319	60.911058484263	0
11	320	61.111058484263	0
11	321	61.221423888842	0
11	322	61.421423888842	0
11	323	61.621423888842	0
11	324	61.821423888842	0
11	325	62.021423888842	0
11	326	62.221423888842	0
11	327	62.421423888842	0
11	328	62.621423888842	0
11	329	62.821423888842	0
11	330	63.021423888842	0
11	331	63.221423888842	0
11	332	63.412477436107	0
11	333	63.612477436107	0
11	334	63.812477436107	0
11	335	64.012477436107	0
11	336	64.212477436107	0
11	337	64.412477436107	0
11	338	64.612477436107	0
11	339	64.812477436107	0
11	340	65.012477436107	0
11	341	65.024099041423	0
11	342	65.224099041423	0
11	343	65.424099041423	0
11	344	65.624099041423	0
11	345	65.824099041423	0
11	346	66.024099041423	0
11	347	66.224099041423	0
11	348	66.424099041423	0
11	349	66.624099041423	0
11	350	66.739862923905	0
11	351	66.939862923905	0
11	352	67.139862923905	0
11	353	67.339862923905	0
11	354	67.539862923905	0
11	355	67.739862923905	0
11	356	67.939862923905	0
11	357	68.139862923905	0
11	358	68.339862923905	0
11	359	68.539862923905	0
11	360	68.739862923905	0
11	361	68.939862923905	0
11	362	68.994013779445	0
11	363	69.194013779445	0
11	364	69.394013779445	0
11	365	69.594013779445	0
11	366	69.794013779445	0
11	367	69.994013779445	0
11	368	70.194013779445	0
11	369	70.394013779445	0
11	370	70.594013779445	0
11	371	70.794013779445	0
11	372	70.994013779445	0
11	373	71.036276868275	0
11	374	71.236276868275	0
11	375	71.436276868275	0
11	376	71.636276868275	0
11	377	71.836276868275	0
11	378	72.036276868275	0
11	379	72.236276868275	0
11	380	72.436276868275	0
11	381	72.636276868275	0
11	382	72.836276868275	0
11	383	73.036276868275	0
11	384	73.236276868275	0
11	385	73.436276868275	0
11	386	73.564704902631	0
11	387	73.764704902631	0
11	388	73.964704902631	0
11	389	74.164704902631	0
11	390	74.364704902631	0
11	391	74.564704902631	0
11	392	74.764704902631	0
11	393	74.964704902631	0
11	394	75.164704902631	0
11	395	75.364704902631	0
11	396	75.564704902631	0
11	397	75.764704902631	0
11	398	75.964704902631	0
11	399	75.989167688797	0
11	400	76.189167688797	0
11	401	76.389167688797	0
11	402	76.589167688797	0
11	403	76.789167688797	0
11	404	76.989167688797	0
11	405	77.189167688797	0
11	406	77.389167688797	0
11	407	77.570247014703	0
11	408	77.770247014703	0
11	409	77.970247014703	0
11	410	78.170247014703	0
11	411	78.370247014703	0
11	412	78.570247014703	0
11	413	78.770247014703	0
11	414	78.970247014703	0
11	415	79.170247014703	0
11	416	79.370247014703	0
11	417	79.388562358655	0
11	418	79.588562358655	0
11	419	79.788562358655	0
11	420	79.988562358655	0
12	0	0	0
12	1	0.2	0
12	2	0.4	0
12	3	0.6	0
12	4	0.8	0
12	5	1	0
12	6	1.2	0
12	7	1.4	0
12	8	1.6	0
12	9	1.8	0
12	10	2	0
12	11	2.2	0
12	12	2.249727181131	0
12	13	2.449727181131	0
12	14	2.649727181131	0
12	15	2.849727181131	0
12	16	3.049727181131	0
12	17	3.249727181131	0
12	18	3.449727181131	0
12	19	3.649727181131	0
12	20	3.849727181131	0
12	21	4.049727181131	0
12	22	4.249727181131	0
12	23	4.315256610347	0
12	24	4.515256610347	0
12	25	4.715256610347	0
12	26	4.915256610347	0
12	27	5.115256610347	0
12	28	5.315256610347	0
12	29	5.515256610347	0
12	30	5.572164984833	0
12	31	5.772164984833	0
12	32	5.972164984833	0
12	33	6.172164984833	0
12	34	6.372164984833	0
12	35	6.572164984833	0
12	36	6.772164984833	0
12	37	6.972164984833	0
12	38	7.172164984833	0
12	39	7.372164984833	0
12	40	7.572164984833	0
12	41	7.772164984833	0
12	42	7.972164984833	0
12	43	8.155195531202	0
12	44	8.355195531202	0
12	45	8.555195531202	0
12	46	8.755195531202	0
12	47	8.955195531202	0
12	48	9.155195531202	0
12	49	9.355195531202	0
12	50	9.555195531202	0
12	51	9.755195531202	0
12	52	9.955195531202	0
12	53	10.155195531202	0
12	54	10.290863376724	0
12	55	10.490863376724	0
12	56	10.690863376724	0
12	57	10.890863376724	0
12	58	11.090863376724	0
12	59	11.290863376724	0
12	60	11.490863376724	0
12	61	11.690863376724	0
12	62	11.842010800976	0
12	63	12.042010800976	0
12	64	12.242010800976	0
12	65	12.442010800976	0
12	66	12.642010800976	0
12	67	12.842010800976	0
12	68	13.042010800976	0
12	69	13.242010800976	0
12	70	13.442010800976	0
12	71	13.642010800976	0
12	72	13.842010800976	0
12	73	13.931930962601	0
12	74	14.131930962601	0
12	75	14.331930962601	0
12	76	14.531930962601	0
12	77	14.731930962601	0
12	78	14.931930962601	0
12	79	15.131930962601	0
12	80	15.331930962601	0
12	81	15.531930962601	0
12	82	15.731930962601	0
12	83	15.931930962601	0
12	84	16.131930962601	0
12	85	16.331930962601	0
12	86	16.38676914718	0
12	87	16.58676914718	0
12	88	16.78676914718	0
12	89	16.98676914718	0
12	90	17.18676914718	0
12	91	17.38676914718	0
12	92	17.58676914718	0
12	93	17.78676914718	0
12	94	17.98676914718	0
12	95	18.18676914718	0
12	96	18.330420825971	0
12	97	18.530420825971	0
12	98	18.730420825971	0
12	99	18.930420825971	0
12	100	19.130420825971	0
12	101	19.330420825971	0
12	102	19.530420825971	0
12	103	19.730420825971	0
12	104	19.930420825971	0
12	105	20.130420825971	0
12	106	20.171405639731	0
12	107	20.371405639731	0
12	108	20.571405639731	0
12	109	20.771405639731	0
12	110	20.971405639731	0
12	111	21.171405639731	0
12	112	21.371405639731	0
12	113	21.571405639731	0
12	114	21.771405639731	0
12	115	21.971405639731	0
12	116	22.171405639731	0
12	117	22.371405639731	0
12	118	22.571405639731	0
12	119	22.771405639731	0
12	120	22.971405639731	0
12	121	23.147133103146	0
12	122	23.347133103146	0
12	123	23.547133103146	0
12	124	23.747133103146	0
12	125	23.947133103146	0
12	126	24.147133103146	0
12	127	24.347133103146	0
12	128	24.547133103146	0
12	129	24.747133103146	0
12	130	24.947133103146	0
12	131	25.147133103146	0
12	132	25.347133103146	0
12	133	25.367329230392	0
12	134	25.567329230392	0
12	135	25.767329230392	0
12	136	25.967329230392	0
12	137	26.167329230392	0
12	138	26.367329230392	0
12	139	26.567329230392	0
12	140	26.767329230392	0
12	141	26.967329230392	0
12	142	27.167329230392	0
12	143	27.205726885548	0
12	144	27.405726885548	0
12	145	27.605726885548	0
12	146	27.805726885548	0
12	147	28.005726885548	0
12	148	28.205726885548	0
12	149	28.405726885548	0
12	150	28.605726885548	0
12	151	28.805726885548	0
12	152	29.005726885548	0
12	153	29.102375572532	0
12	154	29.302375572532	0
12	155	29.502375572532	0
12	156	29.702375572532	0
12	157	29.902375572532	0
12	158	30.102375572532	0
12	159	30.302375572532	0
12	160	30.502375572532	0
12	161	30.702375572532	0
12	162	30.902375572532	0
12	163	31.102375572532	0
12	164	31.302375572532	0
12	165	31.502375572532	0
12	166	31.566652479034	0
12	167	31.766652479034	0
12	168	31.966652479034	0