version 3
run CNPF-0-20240926-00:17:05-38412
attr configname CNPF
attr datetime 20240926-00:17:05
attr datetimef 20240926-001705
attr experiment CNPF
attr inifile omnetpp.ini
attr iterationvars ""
attr iterationvarsd ""
attr iterationvarsf ""
attr measurement ""
attr network ParcelDeliveryNetwork
attr processid 38412
attr repetition 0
attr replication #0
attr resultdir results
attr runnumber 0
attr seedset 0
config image-path ../inet/images
config network ParcelDeliveryNetwork
config description "1 drones, 30 destinations, 30 parcels, "
config *.numdrones 1
config **.drone*.mobility.typename DroneNetMob
config **.drone[*].mobility.ndst 30
config **.drone[*].mobility.nd 8
config **.drone[*].mobility.npar 30
config **.drone[*].mobility.initFromDisplayString false
config **.drone[*].mobility.changeInterval "truncnormal(2s, 0.5s)"
config **.drone[*].mobility.angleDelta "normal(0deg, 30deg)"
config **.drone[*].mobility.speed 10mps
config **.drone[*].mobility.remainingBattery 480
config **.drone[*].mobility.weightCapacity 100
config **.drone[*].mobility.parcelSelectionMethod 4
config **.drone[*].mobility.initialX 0m
config **.drone[*].mobility.initialY 0m
config **.drone[*].mobility.initialZ 0m
config sim-time-limit 600second
config **.constraintAreaMinX 0m
config **.constraintAreaMinY 0m
config **.constraintAreaMinZ 0m
config **.constraintAreaMaxX 600m
config **.constraintAreaMaxY 400m
config **.constraintAreaMaxZ 0m
config **.updateInterval 0.2s

vector 0 ParcelDeliveryNetwork.gcs.wlan[0].mac.dcf frameSequenceActive:vector ETV
attr autoWarmupFilter false
attr interpolationmode sample-hold
attr recordingmode vector
attr source warmup(count(frameSequenceStarted)-count(frameSequenceFinished))
attr title "frame sequence active"
vector 1 ParcelDeliveryNetwork.gcs.wlan[0].mac.dcf.channelAccess.pendingQueue queueLength:vector ETV
attr autoWarmupFilter false
attr interpolationmode sample-hold
attr recordingmode vector
attr source "warmup(atomic(constant0(packetPushEnded) + count(packetPushStarted) - count(packetPulled) - count(packetRemoved) - count(packetDropped)))"
attr title "queue length"
attr unit pk
vector 2 ParcelDeliveryNetwork.gcs.wlan[0].mac.dcf.channelAccess.pendingQueue queueBitLength:vector ETV
attr autoWarmupFilter false
attr interpolationmode sample-hold
attr recordingmode vector
attr source "warmup(atomic(constant0(packetPushEnded) + sum(packetLength(packetPushStarted)) - sum(packetLength(packetPulled)) - sum(packetLength(packetRemoved)) - sum(packetLength(packetDropped))))"
attr title "queue bit length"
attr unit b
vector 3 ParcelDeliveryNetwork.gcs.wlan[0].mac.dcf.channelAccess.inProgressFrames queueLength:vector ETV
attr autoWarmupFilter false
attr interpolationmode sample-hold
attr recordingmode vector
attr source "warmup(count(packetEnqueued) - count(packetDequeued))"
attr title "queue length"
vector 4 ParcelDeliveryNetwork.gcs.wlan[0].mac.dcf.channelAccess.contention backoffActive:vector ETV
attr autoWarmupFilter false
attr interpolationmode sample-hold
attr recordingmode vector
attr source warmup(count(backoffStarted)-count(backoffStopped))
attr title "backoff active"
vector 5 ParcelDeliveryNetwork.gcs.udp passedUpPk:vector(count) ETV
attr interpolationmode none
attr recordingmode vector(count)
attr source packetSentToUpper
attr title "packets passed up, count"
vector 6 ParcelDeliveryNetwork.gcs.udp droppedPkWrongPort:vector(count) ETV
attr interpolationmode none
attr recordingmode vector(count)
attr source packetDropReasonIsNoPortFound(packetDropped)
attr title "packets dropped (wrong port), count"
vector 7 ParcelDeliveryNetwork.gcs.udp droppedPkBadChecksum:vector(count) ETV
attr interpolationmode none
attr recordingmode vector(count)
attr source packetDropReasonIsIncorrectlyReceived(packetDropped)
attr title "packets dropped (checksum error), count"
vector 8 ParcelDeliveryNetwork.gcs.wlan[0].radio radioMode:vector ETV
attr interpolationmode sample-hold
attr recordingmode vector
attr source radioModeChanged
attr title "Radio mode"
vector 9 ParcelDeliveryNetwork.gcs.wlan[0].radio radioChannel:vector ETV
attr interpolationmode sample-hold
attr recordingmode vector
attr source radioChannelChanged
attr title "Radio channel"
vector 10 ParcelDeliveryNetwork.drone[0] coordX:vector ETV
attr interpolationmode linear
attr recordingmode vector
attr source xCoord(mobilityPos(mobilityStateChanged))
attr title "coord X"
vector 11 ParcelDeliveryNetwork.drone[0] coordY:vector ETV
attr interpolationmode linear
attr recordingmode vector
attr source yCoord(mobilityPos(mobilityStateChanged))
attr title "coord Y"
vector 12 ParcelDeliveryNetwork.drone[0] coordZ:vector ETV
attr interpolationmode linear
attr recordingmode vector
attr source zCoord(mobilityPos(mobilityStateChanged))
attr title "coord Z"
vector 13 ParcelDeliveryNetwork.gcs.wlan[0].radio receptionState:vector ETV
attr interpolationmode sample-hold
attr recordingmode vector
attr source receptionStateChanged
attr title "Radio reception state"
vector 14 ParcelDeliveryNetwork.gcs.wlan[0].mac.dcf.channelAccess.contention stateChanged:vector ETV
attr enum IDLE,DEFER,IFS_AND_BACKOFF
attr interpolationmode none
attr recordingmode vector
attr title "contention state changed"
attr type enum
vector 15 ParcelDeliveryNetwork.gcs.wlan[0].mac.dcf.recoveryProcedure contentionWindowChanged:vector ETV
attr interpolationmode sample-hold
attr recordingmode vector
attr title "contention window"
vector 16 ParcelDeliveryNetwork.gcs.wlan[0].mac.dcf.channelAccess.pendingQueue outgoingDataRate:vector ETV
attr interpolationmode linear
attr recordingmode vector
attr source throughput(packetPulled)
attr title "outgoing datarate"
attr unit bps
vector 17 ParcelDeliveryNetwork.gcs.wlan[0].mac.dcf.channelAccess.pendingQueue incomingDataRate:vector ETV
attr interpolationmode linear
attr recordingmode vector
attr source throughput(packetPushStarted)
attr title "incoming datarate"
attr unit bps
0	0	0	0
0	0	0	0
1	0	0	0
1	0	0	0
1	0	0	0
1	0	0	0
1	0	0	0
2	0	0	0
2	0	0	0
2	0	0	0
2	0	0	0
2	0	0	0
3	0	0	0
3	0	0	0
4	0	0	0
4	0	0	0
5	0	0	0
6	0	0	0
7	0	0	0
8	0	0	0
8	0	0	0
8	0	0	2
9	0	0	0
10	0	0	0
10	1	0.2	0
10	2	0.4	0
10	3	0.6	0
10	4	0.8	0
10	5	1	0
10	6	1.2	0
10	7	1.4	0
10	8	1.6	0
10	9	1.8	0
10	10	2	0
10	11	2.2	0
10	12	2.4	0
10	13	2.426285337517	0
10	14	2.626285337517	12.203682746534
10	15	2.826285337517	24.407365493067
10	16	3.026285337517	36.611048239601
10	17	3.226285337517	48.814730986135
10	18	3.426285337517	61.018413732668
10	19	3.626285337517	73.222096479202
10	20	3.826285337517	85.425779225736
10	21	4.026285337517	97.629461972269
10	22	4.226285337517	109.8331447188
10	23	4.426285337517	122.03682746534
10	24	4.626285337517	134.24051021187
10	25	4.786228692172	144
10	26	4.986228692172	154.21222747493
10	27	5.186228692172	164.42445494986
10	28	5.386228692172	174.6366824248
10	29	5.586228692172	184.84890989973
10	30	5.786228692172	195.06113737466
10	31	5.986228692172	205.27336484959
10	32	6.186228692172	215.48559232452
10	33	6.386228692172	225.69781979946
10	34	6.411731065748	227
10	35	6.611731065748	227
10	36	6.811731065748	227
10	37	7.011731065748	227
10	38	7.211731065748	227
10	39	7.411731065748	227
10	40	7.611731065748	227
10	41	7.811731065748	227
10	42	7.873152206448	227
10	43	8.073152206448	232.10271715716
10	44	8.273152206448	237.20543431432
10	45	8.473152206448	242.30815147147
10	46	8.673152206448	247.41086862863
10	47	8.873152206448	252.51358578579
10	48	9.073152206448	257.61630294295
10	49	9.273152206448	262.7190201001
10	50	9.473152206448	267.82173725726
10	51	9.673152206448	272.92445441442
10	52	9.715308005112	274
10	53	9.915308005112	274
10	54	10.115308005112	274
10	55	10.315308005112	274
10	56	10.515308005112	274
10	57	10.715308005112	274
10	58	10.915308005112	274
10	59	11.115308005112	274
10	60	11.315308005112	274
10	61	11.515308005112	274
10	62	11.715308005112	274
10	63	11.915308005112	274
10	64	12.115308005112	274
10	65	12.315308005112	274
10	66	12.515308005112	274
10	67	12.703472419145	274
10	68	12.903472419145	275.65075610101
10	69	13.103472419145	277.30151220203
10	70	13.303472419145	278.95226830304
10	71	13.503472419145	280.60302440406
10	72	13.703472419145	282.25378050507
10	73	13.903472419145	283.90453660609
10	74	14.103472419145	285.5552927071
10	75	14.303472419145	287.20604880812
10	76	14.503472419145	288.85680490913
10	77	14.520821449784	289
10	78	14.720821449784	294.02279631614
10	79	14.920821449784	299.04559263228
10	80	15.120821449784	304.06838894842
10	81	15.320821449784	309.09118526456
10	82	15.520821449784	314.1139815807
10	83	15.720821449784	319.13677789684
10	84	15.920821449784	324.15957421298
10	85	16.033922822336	327
10	86	16.233922822336	332.04870019077
10	87	16.433922822336	337.09740038153
10	88	16.633922822336	342.1461005723
10	89	16.833922822336	347.19480076307
10	90	17.033922822336	352.24350095383
10	91	17.233922822336	357.2922011446
10	92	17.433922822336	362.34090133537
10	93	17.633922822336	367.38960152613
10	94	17.833922822336	372.4383017169
10	95	18.033922822336	377.48700190767
10	96	18.233922822336	382.53570209843
10	97	18.371158061929	386
10	98	18.571158061929	394.04953217243
10	99	18.771158061929	402.09906434486
10	100	18.971158061929	410.14859651729
10	101	19.171158061929	418.19812868972
10	102	19.371158061929	426.24766086215
10	103	19.571158061929	434.29719303458
10	104	19.762543270421	442
10	105	19.962543270421	455.92543159295
10	106	20.162543270421	469.8508631859
10	107	20.362543270421	483.77629477886
10	108	20.562543270421	497.70172637181
10	109	20.762543270421	511.62715796476
10	110	20.962543270421	525.55258955771
10	111	21.162543270421	539.47802115067
10	112	21.256213312973	546
10	113	21.456213312973	548.78332078666
10	114	21.656213312973	551.56664157332
10	115	21.856213312973	554.34996235998
10	116	22.056213312973	557.13328314664
10	117	22.256213312973	559.9166039333
10	118	22.456213312973	562.69992471996
10	119	22.656213312973	565.48324550662
10	120	22.856213312973	568.26656629328
10	121	23.056213312973	571.04988707994
10	122	23.256213312973	573.8332078666
10	123	23.456213312973	576.61652865326
10	124	23.656213312973	579.39984943992
10	125	23.843051321193	582
10	126	24.043051321193	550.62854237341
10	127	24.243051321193	519.25708474683
10	128	24.443051321193	487.88562712024
10	129	24.643051321193	456.51416949365
10	130	24.843051321193	425.14271186707
10	131	25.043051321193	393.77125424048
10	132	25.243051321193	362.39979661389
10	133	25.443051321193	331.02833898731
10	134	25.643051321193	299.65688136072
10	135	25.742867412285	284
10	136	25.942867412285	280.26175132399
10	137	26.142867412285	276.52350264799
10	138	26.342867412285	272.78525397198
10	139	26.542867412285	269.04700529597
10	140	26.742867412285	265.30875661997
10	141	26.942867412285	261.57050794396
10	142	27.142867412285	257.83225926795
10	143	27.342867412285	254.09401059195
10	144	27.542867412285	250.35576191594
10	145	27.615402015167	249
10	146	27.815402015167	236.16116166455
10	147	28.015402015167	223.3223233291
10	148	28.215402015167	210.48348499365
10	149	28.415402015167	197.64464665821
10	150	28.615402015167	184.80580832276
10	151	28.815402015167	171.96696998731
10	152	29.015402015167	159.12813165186
10	153	29.215402015167	146.28929331641
10	154	29.415402015167	133.45045498096
10	155	29.547040949472	125
10	156	29.747040949472	125
10	157	29.947040949472	125
10	158	30.147040949472	125
10	159	30.347040949472	125
10	160	30.547040949472	125
10	161	30.747040949472	125
10	162	30.947040949472	125
10	163	31.147040949472	125
10	164	31.347040949472	125
10	165	31.547040949472	125
10	166	31.747040949472	125
10	167	31.947040949472	125
10	168	32.147040949472	125
10	169	32.347040949472	125
10	170	32.458371837166	125
10	171	32.658371837166	132.4462678457
10	172	32.858371837166	139.8925356914
10	173	33.058371837166	147.33880353711
10	174	33.258371837166	154.78507138281
10	175	33.458371837166	162.23133922851
10	176	33.658371837166	169.67760707421
10	177	33.858371837166	177.12387491991
10	178	34.058371837166	184.57014276562
10	179	34.258371837166	192.01641061132
10	180	34.458371837166	199.46267845702
10	181	34.658371837166	206.90894630272
10	182	34.858371837166	214.35521414842
10	183	35.009985664886	220
10	184	35.209985664886	206.32892916123
10	185	35.409985664886	192.65785832246
10	186	35.609985664886	178.98678748369
10	187	35.809985664886	165.31571664492
10	188	36.009985664886	151.64464580615
10	189	36.209985664886	137.97357496738
10	190	36.409985664886	124.3025041286
10	191	36.609985664886	110.63143328983
10	192	36.809985664886	96.960362451063
10	193	37.009985664886	83.289291612292
10	194	37.209985664886	69.618220773522
10	195	37.409985664886	55.947149934751
10	196	37.609985664886	42.27607909598
10	197	37.701801136695	36
10	198	37.901801136695	32.521398666611
10	199	38.101801136695	29.042797333222
10	200	38.301801136695	25.564195999833
10	201	38.334239231536	25
10	202	38.534239231536	22.808667366759
10	203	38.734239231536	20.617334733519
10	204	38.934239231536	18.426002100278
10	205	39.134239231536	16.234669467037
10	206	39.334239231536	14.043336833797
10	207	39.534239231536	11.852004200556
10	208	39.734239231536	9.6606715673155
10	209	39.934239231536	7.4693389340749
10	210	40.134239231536	5.2780063008342
10	211	40.334239231536	3.0866736675936
10	212	40.534239231536	0.89534103435295
10	213	40.615955810824	0
10	214	40.815955810824	0
10	215	41.015955810824	0
10	216	41.215955810824	0
10	217	41.415955810824	0
10	218	41.615955810824	0
10	219	41.815955810824	0
10	220	42.015955810824	0
10	221	42.064258482795	0
10	222	42.264258482795	9.6076880046757
10	223	42.464258482795	19.215376009351
10	224	42.664258482795	28.823064014027
10	225	42.864258482795	38.430752018703
10	226	43.064258482795	48.038440023379
10	227	43.264258482795	57.646128028054
10	228	43.464258482795	67.25381603273
10	229	43.664258482795	76.861504037406
10	230	43.687958169172	78
10	231	43.887958169172	78
10	232	44.087958169172	78
10	233	44.287958169172	78
10	234	44.487958169172	78
10	235	44.687958169172	78
10	236	44.887958169172	78
10	237	45.087958169172	78
10	238	45.287958169172	78
10	239	45.487958169172	78
10	240	45.641929219663	78
10	241	45.841929219663	80.321915839886
10	242	46.041929219663	82.643831679771
10	243	46.241929219663	84.965747519657
10	244	46.441929219663	87.287663359543
10	245	46.641929219663	89.609579199429
10	246	46.841929219663	91.931495039314
10	247	47.020101479411	94
10	248	47.220101479411	111.92437800499
10	249	47.420101479411	129.84875600997
10	250	47.620101479411	147.77313401496
10	251	47.820101479411	165.69751201994
10	252	48.020101479411	183.62189002493
10	253	48.220101479411	201.54626802992
10	254	48.420101479411	219.4706460349
10	255	48.620101479411	237.39502403989
10	256	48.749589665354	249
10	257	48.949589665354	249
10	258	49.149589665354	249
10	259	49.349589665354	249
10	260	49.549589665354	249
10	261	49.749589665354	249
10	262	49.949589665354	249
10	263	50.149589665354	249
10	264	50.349589665354	249
10	265	50.549589665354	249
10	266	50.749589665354	249
10	267	50.814680539829	249
10	268	51.014680539829	254.00444809701
10	269	51.214680539829	259.00889619401
10	270	51.414680539829	264.01334429102
10	271	51.614680539829	269.01779238803
10	272	51.814680539829	274.02224048504
10	273	52.014680539829	279.02668858204
10	274	52.214680539829	284.03113667905
10	275	52.414680539829	289.03558477606
10	276	52.614680539829	294.04003287307
10	277	52.814680539829	299.04448097007
10	278	53.014680539829	304.04892906708
10	279	53.214680539829	309.05337716409
10	280	53.292476244697	311
10	281	53.492476244697	306.03230754768
10	282	53.692476244697	301.06461509536
10	283	53.892476244697	296.09692264305
10	284	54.092476244697	291.12923019073
10	285	54.292476244697	286.16153773841
10	286	54.492476244697	281.19384528609
10	287	54.692476244697	276.22615283378
10	288	54.782101472311	274
10	289	54.982101472311	274
10	290	55.182101472311	274
10	291	55.382101472311	274
10	292	55.582101472311	274
10	293	55.782101472311	274
10	294	55.982101472311	274
10	295	56.182101472311	274
10	296	56.382101472311	274
10	297	56.582101472311	274
10	298	56.782101472311	274
10	299	56.934754508933	274
10	300	57.134754508933	291.41676559054
10	301	57.334754508933	308.83353118107
10	302	57.534754508933	326.25029677161
10	303	57.734754508933	343.66706236214
10	304	57.934754508933	361.08382795268
10	305	58.134754508933	378.50059354322
10	306	58.334754508933	395.91735913375
10	307	58.534754508933	413.33412472429
10	308	58.734754508933	430.75089031482
10	309	58.863930154396	442
10	310	59.063930154396	442
10	311	59.263930154396	442
10	312	59.463930154396	442
10	313	59.663930154396	442
10	314	59.863930154396	442
10	315	60.063930154396	442
10	316	60.263930154396	442
10	317	60.463930154396	442
10	318	60.663930154396	442
10	319	60.863930154396	442
10	320	60.97906119498	442
10	321	61.17906119498	442.98846888486
10	322	61.37906119498	443.97693776971
10	323	61.57906119498	444.96540665457
10	324	61.77906119498	445.95387553943
10	325	61.97906119498	446.94234442428
10	326	62.17906119498	447.93081330914
10	327	62.37906119498	448.919282194
10	328	62.57906119498	449.90775107885
10	329	62.77906119498	450.89621996371
10	330	62.97906119498	451.88468884857
10	331	63.17906119498	452.87315773342
10	332	63.37906119498	453.86162661828
10	333	63.407058713939	454
10	334	63.607058713939	411.26530829162
10	335	63.807058713939	368.53061658323
10	336	64.007058713939	325.79592487485
10	337	64.207058713939	283.06123316647
10	338	64.407058713939	240.32654145809
10	339	64.607058713939	197.5918497497
10	340	64.807058713939	154.85715804132
10	341	65.007058713939	112.12246633294
10	342	65.207058713939	69.387774624557
10	343	65.363314782673	36
10	344	65.563314782673	33.010795236568
10	345	65.763314782673	30.021590473135
10	346	65.963314782673	27.032385709703
10	347	66.163314782673	24.043180946271
10	348	66.363314782673	21.053976182839
10	349	66.563314782673	18.064771419406
10	350	66.763314782673	15.075566655974
10	351	66.963314782673	12.086361892542
10	352	67.163314782673	9.0971571291094
10	353	67.363314782673	6.1079523656771
10	354	67.563314782673	3.1187476022448
10	355	67.763314782673	0.12954283881248
10	356	67.771982160726	0
10	357	67.971982160726	0
10	358	68.171982160726	0
10	359	68.371982160726	0
10	360	68.571982160726	0
10	361	68.771982160726	0
10	362	68.971982160726	0
10	363	69.171982160726	0
10	364	69.371982160726	0
10	365	69.571982160726	0
10	366	69.771982160726	0
10	367	69.891049336767	0
10	368	70.091049336767	0
10	369	70.291049336767	0
10	370	70.491049336767	0
10	371	70.691049336767	0
10	372	70.891049336767	0
10	373	71.091049336767	0
10	374	71.291049336767	0
10	375	71.367216893735	0
10	376	71.567216893735	0
10	377	71.767216893735	0
10	378	71.967216893735	0
10	379	72.167216893735	0
10	380	72.367216893735	0
10	381	72.567216893735	0
10	382	72.767216893735	0
10	383	72.967216893735	0
10	384	73.167216893735	0
10	385	73.367216893735	0
10	386	73.567216893735	0
10	387	73.767216893735	0
10	388	73.967216893735	0
10	389	74.167216893735	0
10	390	74.349067684222	0
10	391	74.549067684222	0
10	392	74.749067684222	0
10	393	74.949067684222	0
10	394	75.149067684222	0
10	395	75.349067684222	0
10	396	75.549067684222	0
10	397	75.629492698519	0
10	398	75.829492698519	0
10	399	76.029492698519	0
10	400	76.229492698519	0
10	401	76.429492698519	0
10	402	76.629492698519	0
10	403	76.829492698519	0
10	404	77.029492698519	0
10	405	77.229492698519	0
10	406	77.271688460908	0
10	407	77.471688460908	0
10	408	77.671688460908	0
10	409	77.871688460908	0
10	410	78.071688460908	0
10	411	78.271688460908	0
10	412	78.471688460908	0
10	413	78.671688460908	0
10	414	78.871688460908	0
10	415	79.071688460908	0
10	416	79.271688460908	0
10	417	79.471688460908	0
10	418	79.671688460908	0
10	419	79.709900557275	0
10	420	79.909900557275	0
10	421	80.109900557275	0
10	422	80.309900557275	0
10	423	80.509900557275	0
10	424	80.709900557275	0
10	425	80.909900557275	0
10	426	81.109900557275	0
10	427	81.309900557275	0
10	428	81.509900557275	0
10	429	81.709900557275	0
10	430	81.909900557275	0
10	431	82.109900557275	0
10	432	82.309900557275	0
10	433	82.337594274942	0
10	434	82.537594274942	0
10	435	82.737594274942	0
10	436	82.937594274942	0
10	437	83.137594274942	0
10	438	83.337594274942	0
10	439	83.537594274942	0
10	440	83.737594274942	0
10	441	83.937594274942	0
10	442	84.137594274942	0
10	443	84.337594274942	0
10	444	84.510664779109	0
10	445	84.710664779109	0
10	446	84.910664779109	0
10	447	85.110664779109	0
10	448	85.310664779109	0
10	449	85.510664779109	0
10	450	85.710664779109	0
10	451	85.910664779109	0
10	452	86.086882591286	0
10	453	86.286882591286	0
10	454	86.486882591286	0
10	455	86.686882591286	0
10	456	86.886882591286	0
10	457	87.086882591286	0
10	458	87.286882591286	0
10	459	87.486882591286	0
10	460	87.686882591286	0
10	461	87.886882591286	0
10	462	88.086882591286	0
10	463	88.286882591286	0
10	464	88.442139713359	0
10	465	88.642139713359	0
10	466	88.842139713359	0
10	467	89.042139713359	0
10	468	89.242139713359	0
10	469	89.442139713359	0
10	470	89.642139713359	0
10	471	89.842139713359	0
10	472	90.042139713359	0
10	473	90.22617055492	0
10	474	90.42617055492	0
10	475	90.62617055492	0
10	476	90.82617055492	0
10	477	91.02617055492	0
10	478	91.22617055492	0
10	479	91.42617055492	0
10	480	91.62617055492	0
10	481	91.82617055492	0
10	482	92.02617055492	0
10	483	92.22617055492	0
10	484	92.227303112335	0
10	485	92.427303112335	0
10	486	92.627303112335	0
10	487	92.827303112335	0
10	488	93.027303112335	0
10	489	93.227303112335	0
10	490	93.427303112335	0
10	491	93.627303112335	0
10	492	93.827303112335	0
10	493	93.888152527499	0
10	494	94.088152527499	0
10	495	94.288152527499	0
10	496	94.488152527499	0
10	497	94.688152527499	0
10	498	94.888152527499	0
10	499	95.088152527499	0
10	500	95.288152527499	0
10	501	95.488152527499	0
10	502	95.67217784536	0
10	503	95.87217784536	0
10	504	96.07217784536	0
10	505	96.27217784536	0
10	506	96.47217784536	0
10	507	96.67217784536	0
10	508	96.87217784536	0
10	509	97.07217784536	0
10	510	97.27217784536	0
10	511	97.47217784536	0
10	512	97.67217784536	0
10	513	97.87217784536	0
10	514	98.07217784536	0
10	515	98.27217784536	0
10	516	98.303111574128	0
10	517	98.503111574128	0
10	518	98.703111574128	0
10	519	98.903111574128	0
10	520	99.103111574128	0
10	521	99.303111574128	0
10	522	99.503111574128	0
10	523	99.703111574128	0
10	524	99.903111574128	0
10	525	99.94597208869	0
10	526	100.14597208869	0
10	527	100.34597208869	0
10	528	100.54597208869	0
10	529	100.74597208869	0
10	530	100.94597208869	0
10	531	101.14597208869	0
10	532	101.34597208869	0
10	533	101.54597208869	0
10	534	101.74597208869	0
10	535	101.94597208869	0
10	536	102.14597208869	0
10	537	102.34597208869	0
10	538	102.54597208869	0
10	539	102.74597208869	0
10	540	102.94597208869	0
10	541	103.14597208869	0
10	542	103.34597208869	0
10	543	103.389000815726	0
10	544	103.589000815726	0
10	545	103.789000815726	0
10	546	103.989000815726	0
10	547	104.189000815726	0
10	548	104.389000815726	0
10	549	104.589000815726	0
10	550	104.789000815726	0
10	551	104.989000815726	0
10	552	105.189000815726	0
10	553	105.25595402553	0
10	554	105.45595402553	0
10	555	105.65595402553	0
10	556	105.85595402553	0
10	557	106.05595402553	0
10	558	106.25595402553	0
10	559	106.45595402553	0
10	560	106.65595402553	0
10	561	106.85595402553	0
10	562	107.029699868713	0
10	563	107.229699868713	0
10	564	107.429699868713	0
10	565	107.629699868713	0
10	566	107.829699868713	0
10	567	108.029699868713	0
10	568	108.229699868713	0
10	569	108.429699868713	0
10	570	108.629699868713	0
10	571	108.829699868713	0
10	572	109.029699868713	0
10	573	109.229699868713	0
10	574	109.326145606832	0
10	575	109.526145606832	0
10	576	109.726145606832	0
10	577	109.926145606832	0
10	578	110.126145606832	0
10	579	110.326145606832	0
10	580	110.526145606832	0
10	581	110.692681239105	0
10	582	110.892681239105	0
10	583	111.092681239105	0
10	584	111.292681239105	0
10	585	111.492681239105	0
10	586	111.692681239105	0
10	587	111.892681239105	0
10	588	112.092681239105	0
10	589	112.292681239105	0
10	590	112.364521168204	0
10	591	112.564521168204	0
10	592	112.764521168204	0
10	593	112.964521168204	0
10	594	113.164521168204	0
10	595	113.364521168204	0
10	596	113.564521168204	0
10	597	113.764521168204	0
10	598	113.811256406553	0
10	599	114.011256406553	0
10	600	114.211256406553	0
10	601	114.411256406553	0
10	602	114.611256406553	0
10	603	114.811256406553	0
10	604	115.011256406553	0
10	605	115.211256406553	0
10	606	115.411256406553	0
10	607	115.544084081514	0
10	608	115.744084081514	0
10	609	115.944084081514	0
10	610	116.144084081514	0
10	611	116.344084081514	0
10	612	116.544084081514	0
10	613	116.744084081514	0
10	614	116.944084081514	0
10	615	117.144084081514	0
10	616	117.344084081514	0
10	617	117.389556718133	0
10	618	117.589556718133	0
10	619	117.789556718133	0
10	620	117.989556718133	0
10	621	118.189556718133	0
10	622	118.389556718133	0
10	623	118.589556718133	0
10	624	118.789556718133	0
10	625	118.989556718133	0
10	626	119.189556718133	0
10	627	119.279436817439	0
10	628	119.479436817439	0
10	629	119.679436817439	0
10	630	119.879436817439	0
10	631	120.079436817439	0
10	632	120.279436817439	0
10	633	120.479436817439	0
10	634	120.679436817439	0
10	635	120.879436817439	0
10	636	120.979959955225	0
10	637	121.179959955225	0
10	638	121.379959955225	0
10	639	121.579959955225	0
10	640	121.779959955225	0
10	641	121.979959955225	0
10	642	122.179959955225	0
10	643	122.379959955225	0
10	644	122.579959955225	0
10	645	122.779959955225	0
10	646	122.979959955225	0
10	647	123.028268476159	0
10	648	123.228268476159	0
10	649	123.428268476159	0
10	650	123.628268476159	0
10	651	123.828268476159	0
10	652	124.028268476159	0
10	653	124.228268476159	0
10	654	124.428268476159	0
10	655	124.628268476159	0
10	656	124.828268476159	0
10	657	125.028268476159	0
10	658	125.228268476159	0
10	659	125.342618065888	0
10	660	125.542618065888	0
10	661	125.742618065888	0
10	662	125.942618065888	0
10	663	126.142618065888	0
10	664	126.342618065888	0
10	665	126.542618065888	0
10	666	126.742618065888	0
10	667	126.942618065888	0
10	668	127.092101791343	0
10	669	127.292101791343	0
10	670	127.492101791343	0
10	671	127.692101791343	0
10	672	127.892101791343	0
10	673	128.092101791343	0
10	674	128.292101791343	0
10	675	128.492101791343	0
10	676	128.692101791343	0
10	677	128.892101791343	0
10	678	129.092101791343	0
10	679	129.292101791343	0
10	680	129.492101791343	0
10	681	129.692101791343	0
10	682	129.892101791343	0
10	683	130.016183103441	0
10	684	130.216183103441	0
10	685	130.416183103441	0
10	686	130.616183103441	0
10	687	130.816183103441	0
10	688	131.016183103441	0
10	689	131.216183103441	0
10	690	131.416183103441	0
10	691	131.616183103441	0
10	692	131.816183103441	0
10	693	131.854234594609	0
10	694	132.054234594609	0
10	695	132.254234594609	0
10	696	132.454234594609	0
10	697	132.654234594609	0
10	698	132.854234594609	0
10	699	133.054234594609	0
10	700	133.254234594609	0
10	701	133.414034370623	0
10	702	133.614034370623	0
10	703	133.814034370623	0
10	704	134.014034370623	0
10	705	134.214034370623	0
10	706	134.414034370623	0
10	707	134.614034370623	0
10	708	134.814034370623	0
10	709	135.014034370623	0
10	710	135.214034370623	0
10	711	135.414034370623	0
10	712	135.614034370623	0
10	713	135.635312165537	0
10	714	135.835312165537	0
10	715	136.035312165537	0
10	716	136.235312165537	0
10	717	136.435312165537	0
10	718	136.635312165537	0
10	719	136.835312165537	0
10	720	137.035312165537	0
10	721	137.235312165537	0
10	722	137.435312165537	0
10	723	137.635312165537	0
10	724	137.835312165537	0
10	725	138.035312165537	0
10	726	138.235312165537	0
10	727	138.435312165537	0
10	728	138.622662264725	0
10	729	138.822662264725	0
10	730	139.022662264725	0
10	731	139.222662264725	0
10	732	139.422662264725	0
10	733	139.622662264725	0
10	734	139.822662264725	0
10	735	140.022662264725	0
10	736	140.061401599993	0
10	737	140.261401599993	0
10	738	140.461401599993	0
10	739	140.661401599993	0
10	740	140.861401599993	0
10	741	141.061401599993	0
10	742	141.261401599993	0
10	743	141.461401599993	0
10	744	141.661401599993	0
10	745	141.861401599993	0
10	746	142.061401599993	0
10	747	142.261401599993	0
10	748	142.461401599993	0
10	749	142.661401599993	0
10	750	142.861401599993	0
10	751	143.061401599993	0
10	752	143.261401599993	0
10	753	143.349703710404	0
10	754	143.549703710404	0
10	755	143.749703710404	0
10	756	143.949703710404	0
10	757	144.149703710404	0
10	758	144.349703710404	0
10	759	144.549703710404	0
10	760	144.700184013895	0
10	761	144.900184013895	0
10	762	145.100184013895	0
10	763	145.300184013895	0
10	764	145.500184013895	0
10	765	145.700184013895	0
10	766	145.900184013895	0
10	767	146.100184013895	0
10	768	146.300184013895	0
10	769	146.500184013895	0
10	770	146.700184013895	0
10	771	146.900184013895	0
10	772	147.100184013895	0
10	773	147.300184013895	0
10	774	147.500184013895	0
10	775	147.513558217345	0
10	776	147.713558217345	0
10	777	147.913558217345	0
10	778	148.113558217345	0
10	779	148.313558217345	0
10	780	148.513558217345	0
10	781	148.713558217345	0
10	782	148.913558217345	0
10	783	149.113558217345	0
10	784	149.313558217345	0
10	785	149.381555044876	0
10	786	149.581555044876	0
10	787	149.781555044876	0
10	788	149.981555044876	0
10	789	150.181555044876	0
10	790	150.381555044876	0
10	791	150.581555044876	0
10	792	150.781555044876	0
10	793	150.981555044876	0
10	794	151.181555044876	0
10	795	151.381555044876	0
10	796	151.581555044876	0
10	797	151.781555044876	0
10	798	151.7858889256	0
10	799	151.9858889256	0
10	800	152.1858889256	0
10	801	152.3858889256	0
10	802	152.5858889256	0
10	803	152.7858889256	0
10	804	152.9858889256	0
10	805	153.1858889256	0
10	806	153.3858889256	0
10	807	153.5858889256	0
10	808	153.625277763695	0
10	809	153.825277763695	0
10	810	154.025277763695	0
10	811	154.225277763695	0
10	812	154.425277763695	0
10	813	154.625277763695	0
10	814	154.825277763695	0
10	815	155.025277763695	0
10	816	155.209261386894	0
10	817	155.409261386894	0
10	818	155.609261386894	0
10	819	155.809261386894	0
10	820	156.009261386894	0
10	821	156.209261386894	0
10	822	156.409261386894	0
10	823	156.609261386894	0