version 3
run CNPF-9-20240912-08:19:27-54225
attr configname CNPF
attr datetime 20240912-08:19:27
attr datetimef 20240912-081927
attr experiment CNPF
attr inifile omnetpp.ini
attr iterationvars $0=10
attr iterationvarsd 10
attr iterationvarsf 10-
attr measurement $0=10
attr network ParcelDeliveryNetwork
attr processid 54225
attr repetition 9
attr replication #9
attr resultdir results
attr runnumber 9
attr seedset 9
config image-path ../inet/images
config network ParcelDeliveryNetwork
config description "1 drones, 30 destinations, 30 parcels, "
config *.numdrones 1
config **.drone*.mobility.typename DroneNetMob
config **.drone[*].mobility.ndst 10
config **.drone[*].mobility.nd 8
config **.drone[*].mobility.npar 30
config **.drone[*].mobility.initFromDisplayString false
config **.drone[*].mobility.changeInterval "truncnormal(2s, 0.5s)"
config **.drone[*].mobility.angleDelta "normal(0deg, 30deg)"
config **.drone[*].mobility.speed 10mps
config **.drone[*].mobility.remainingBattery 480
config **.drone[*].mobility.weightCapacity 100
config **.drone[*].mobility.parcelSelectionMethod 0
config **.drone[*].mobility.initialX 0m
config **.drone[*].mobility.initialY 0m
config **.drone[*].mobility.initialZ 0m
config repeat 10
config sim-time-limit 80second
config **.constraintAreaMinX 0m
config **.constraintAreaMinY 0m
config **.constraintAreaMinZ 0m
config **.constraintAreaMaxX 600m
config **.constraintAreaMaxY 400m
config **.constraintAreaMaxZ 0m
config **.updateInterval 0.2s

vector 0 ParcelDeliveryNetwork.gcs.wlan[0].mac.dcf frameSequenceActive:vector ETV
attr autoWarmupFilter false
attr interpolationmode sample-hold
attr recordingmode vector
attr source warmup(count(frameSequenceStarted)-count(frameSequenceFinished))
attr title "frame sequence active"
vector 1 ParcelDeliveryNetwork.gcs.wlan[0].mac.dcf.channelAccess.pendingQueue queueLength:vector ETV
attr autoWarmupFilter false
attr interpolationmode sample-hold
attr recordingmode vector
attr source "warmup(atomic(constant0(packetPushEnded) + count(packetPushStarted) - count(packetPulled) - count(packetRemoved) - count(packetDropped)))"
attr title "queue length"
attr unit pk
vector 2 ParcelDeliveryNetwork.gcs.wlan[0].mac.dcf.channelAccess.pendingQueue queueBitLength:vector ETV
attr autoWarmupFilter false
attr interpolationmode sample-hold
attr recordingmode vector
attr source "warmup(atomic(constant0(packetPushEnded) + sum(packetLength(packetPushStarted)) - sum(packetLength(packetPulled)) - sum(packetLength(packetRemoved)) - sum(packetLength(packetDropped))))"
attr title "queue bit length"
attr unit b
vector 3 ParcelDeliveryNetwork.gcs.wlan[0].mac.dcf.channelAccess.inProgressFrames queueLength:vector ETV
attr autoWarmupFilter false
attr interpolationmode sample-hold
attr recordingmode vector
attr source "warmup(count(packetEnqueued) - count(packetDequeued))"
attr title "queue length"
vector 4 ParcelDeliveryNetwork.gcs.wlan[0].mac.dcf.channelAccess.contention backoffActive:vector ETV
attr autoWarmupFilter false
attr interpolationmode sample-hold
attr recordingmode vector
attr source warmup(count(backoffStarted)-count(backoffStopped))
attr title "backoff active"
vector 5 ParcelDeliveryNetwork.gcs.udp passedUpPk:vector(count) ETV
attr interpolationmode none
attr recordingmode vector(count)
attr source packetSentToUpper
attr title "packets passed up, count"
vector 6 ParcelDeliveryNetwork.gcs.udp droppedPkWrongPort:vector(count) ETV
attr interpolationmode none
attr recordingmode vector(count)
attr source packetDropReasonIsNoPortFound(packetDropped)
attr title "packets dropped (wrong port), count"
vector 7 ParcelDeliveryNetwork.gcs.udp droppedPkBadChecksum:vector(count) ETV
attr interpolationmode none
attr recordingmode vector(count)
attr source packetDropReasonIsIncorrectlyReceived(packetDropped)
attr title "packets dropped (checksum error), count"
vector 8 ParcelDeliveryNetwork.gcs.wlan[0].radio radioMode:vector ETV
attr interpolationmode sample-hold
attr recordingmode vector
attr source radioModeChanged
attr title "Radio mode"
vector 9 ParcelDeliveryNetwork.gcs.wlan[0].radio radioChannel:vector ETV
attr interpolationmode sample-hold
attr recordingmode vector
attr source radioChannelChanged
attr title "Radio channel"
vector 10 ParcelDeliveryNetwork.drone[0] coordX:vector ETV
attr interpolationmode linear
attr recordingmode vector
attr source xCoord(mobilityPos(mobilityStateChanged))
attr title "coord X"
vector 11 ParcelDeliveryNetwork.drone[0] coordY:vector ETV
attr interpolationmode linear
attr recordingmode vector
attr source yCoord(mobilityPos(mobilityStateChanged))
attr title "coord Y"
vector 12 ParcelDeliveryNetwork.drone[0] coordZ:vector ETV
attr interpolationmode linear
attr recordingmode vector
attr source zCoord(mobilityPos(mobilityStateChanged))
attr title "coord Z"
vector 13 ParcelDeliveryNetwork.gcs.wlan[0].radio receptionState:vector ETV
attr interpolationmode sample-hold
attr recordingmode vector
attr source receptionStateChanged
attr title "Radio reception state"
vector 14 ParcelDeliveryNetwork.gcs.wlan[0].mac.dcf.channelAccess.contention stateChanged:vector ETV
attr enum IDLE,DEFER,IFS_AND_BACKOFF
attr interpolationmode none
attr recordingmode vector
attr title "contention state changed"
attr type enum
vector 15 ParcelDeliveryNetwork.gcs.wlan[0].mac.dcf.recoveryProcedure contentionWindowChanged:vector ETV
attr interpolationmode sample-hold
attr recordingmode vector
attr title "contention window"
0	0	0	0
0	0	0	0
1	0	0	0
1	0	0	0
1	0	0	0
1	0	0	0
1	0	0	0
2	0	0	0
2	0	0	0
2	0	0	0
2	0	0	0
2	0	0	0
3	0	0	0
3	0	0	0
4	0	0	0
4	0	0	0
5	0	0	0
6	0	0	0
7	0	0	0
8	0	0	0
8	0	0	0
8	0	0	2
9	0	0	0
10	0	0	0
10	1	0.2	0
10	2	0.4	0
10	3	0.6	0
10	4	0.8	0
10	5	1	0
10	6	1.2	0
10	7	1.4	0
10	8	1.6	0
10	9	1.8	0
10	10	2	0
10	11	2.2	0
10	12	2.4	0
10	13	2.584462308485	0
10	14	2.784462308485	0
10	15	2.984462308485	0
10	16	3.184462308485	0
10	17	3.384462308485	0
10	18	3.584462308485	0
10	19	3.784462308485	0
10	20	3.984462308485	0
10	21	4.184462308485	0
10	22	4.384462308485	0
10	23	4.476128157017	0
10	24	4.676128157017	0
10	25	4.876128157017	0
10	26	5.076128157017	0
10	27	5.276128157017	0
10	28	5.476128157017	0
10	29	5.676128157017	0
10	30	5.876128157017	0
10	31	6.076128157017	0
10	32	6.276128157017	0
10	33	6.476128157017	0
10	34	6.676128157017	0
10	35	6.751998792689	0
10	36	6.951998792689	0
10	37	7.151998792689	0
10	38	7.351998792689	0
10	39	7.551998792689	0
10	40	7.751998792689	0
10	41	7.951998792689	0
10	42	8.151998792689	0
10	43	8.351998792689	0
10	44	8.551998792689	0
10	45	8.751998792689	0
10	46	8.951998792689	0
10	47	9.003741703666	0
10	48	9.203741703666	0
10	49	9.403741703666	0
10	50	9.603741703666	0
10	51	9.803741703666	0
10	52	10.003741703666	0
10	53	10.203741703666	0
10	54	10.403741703666	0
10	55	10.603741703666	0
10	56	10.803741703666	0
10	57	11.003741703666	0
10	58	11.203741703666	0
10	59	11.341811837511	0
10	60	11.541811837511	0
10	61	11.741811837511	0
10	62	11.941811837511	0
10	63	12.141811837511	0
10	64	12.341811837511	0
10	65	12.541811837511	0
10	66	12.741811837511	0
10	67	12.941811837511	0
10	68	13.141811837511	0
10	69	13.341811837511	0
10	70	13.541811837511	0
10	71	13.585024712019	0
10	72	13.785024712019	0
10	73	13.985024712019	0
10	74	14.185024712019	0
10	75	14.385024712019	0
10	76	14.585024712019	0
10	77	14.785024712019	0
10	78	14.985024712019	0
10	79	15.185024712019	0
10	80	15.385024712019	0
10	81	15.418752820587	0
10	82	15.618752820587	0
10	83	15.818752820587	0
10	84	16.018752820587	0
10	85	16.218752820587	0
10	86	16.418752820587	0
10	87	16.618752820587	0
10	88	16.818752820587	0
10	89	16.958642163497	0
10	90	17.158642163497	0
10	91	17.358642163497	0
10	92	17.558642163497	0
10	93	17.758642163497	0
10	94	17.958642163497	0
10	95	18.158642163497	0
10	96	18.358642163497	0
10	97	18.558642163497	0
10	98	18.758642163497	0
10	99	18.837455222982	0
10	100	19.037455222982	0
10	101	19.237455222982	0
10	102	19.437455222982	0
10	103	19.637455222982	0
10	104	19.837455222982	0
10	105	20.037455222982	0
10	106	20.11625123363	0
10	107	20.31625123363	0
10	108	20.51625123363	0
10	109	20.71625123363	0
10	110	20.91625123363	0
10	111	21.11625123363	0
10	112	21.31625123363	0
10	113	21.51625123363	0
10	114	21.71625123363	0
10	115	21.91625123363	0
10	116	21.998074800703	0
10	117	22.198074800703	0
10	118	22.398074800703	0
10	119	22.598074800703	0
10	120	22.798074800703	0
10	121	22.998074800703	0
10	122	23.198074800703	0
10	123	23.398074800703	0
10	124	23.598074800703	0
10	125	23.798074800703	0
10	126	23.998074800703	0
10	127	24.135794716567	0
10	128	24.335794716567	0
10	129	24.535794716567	0
10	130	24.735794716567	0
10	131	24.935794716567	0
10	132	25.135794716567	0
10	133	25.335794716567	0
10	134	25.535794716567	0
10	135	25.735794716567	0
10	136	25.90351284583	0
10	137	26.10351284583	0
10	138	26.30351284583	0
10	139	26.50351284583	0
10	140	26.70351284583	0
10	141	26.90351284583	0
10	142	27.10351284583	0
10	143	27.30351284583	0
10	144	27.50351284583	0
10	145	27.70351284583	0
10	146	27.90351284583	0
10	147	28.10351284583	0
10	148	28.30351284583	0
10	149	28.333430998607	0
10	150	28.533430998607	0
10	151	28.733430998607	0
10	152	28.933430998607	0
10	153	29.133430998607	0
10	154	29.333430998607	0
10	155	29.533430998607	0
10	156	29.733430998607	0
10	157	29.933430998607	0
10	158	30.133430998607	0
10	159	30.333430998607	0
10	160	30.533430998607	0
10	161	30.733430998607	0
10	162	30.933430998607	0
10	163	31.034875779199	0
10	164	31.234875779199	0
10	165	31.434875779199	0
10	166	31.634875779199	0
10	167	31.834875779199	0
10	168	32.034875779199	0
10	169	32.234875779199	0
10	170	32.434875779199	0
10	171	32.634875779199	0
10	172	32.834875779199	0
10	173	33.034875779199	0
10	174	33.234875779199	0
10	175	33.434875779199	0
10	176	33.634875779199	0
10	177	33.741129558945	0
10	178	33.941129558945	0
10	179	34.141129558945	0
10	180	34.341129558945	0
10	181	34.541129558945	0
10	182	34.741129558945	0
10	183	34.941129558945	0
10	184	35.141129558945	0
10	185	35.145844058995	0
10	186	35.345844058995	0
10	187	35.545844058995	0
10	188	35.745844058995	0
10	189	35.945844058995	0
10	190	36.145844058995	0
10	191	36.345844058995	0
10	192	36.545844058995	0
10	193	36.745844058995	0
10	194	36.945844058995	0
10	195	37.145844058995	0
10	196	37.345844058995	0
10	197	37.545844058995	0
10	198	37.745844058995	0
10	199	37.875464774527	0
10	200	38.075464774527	0
10	201	38.275464774527	0
10	202	38.475464774527	0
10	203	38.675464774527	0
10	204	38.875464774527	0
10	205	39.075464774527	0
10	206	39.275464774527	0
10	207	39.475464774527	0
10	208	39.536122172235	0
10	209	39.736122172235	0
10	210	39.936122172235	0
10	211	40.136122172235	0
10	212	40.336122172235	0
10	213	40.536122172235	0
10	214	40.736122172235	0
10	215	40.829259190238	0
10	216	41.029259190238	0
10	217	41.229259190238	0
10	218	41.429259190238	0
10	219	41.629259190238	0
10	220	41.829259190238	0
10	221	42.029259190238	0
10	222	42.229259190238	0
10	223	42.232380172007	0
10	224	42.432380172007	0
10	225	42.632380172007	0
10	226	42.832380172007	0
10	227	43.032380172007	0
10	228	43.232380172007	0
10	229	43.432380172007	0
10	230	43.632380172007	0
10	231	43.832380172007	0
10	232	44.032380172007	0
10	233	44.232380172007	0
10	234	44.285125851177	0
10	235	44.485125851177	0
10	236	44.685125851177	0
10	237	44.885125851177	0
10	238	45.085125851177	0
10	239	45.285125851177	0
10	240	45.444053081991	0
10	241	45.644053081991	0
10	242	45.844053081991	0
10	243	46.044053081991	0
10	244	46.244053081991	0
10	245	46.444053081991	0
10	246	46.644053081991	0
10	247	46.844053081991	0
10	248	47.044053081991	0
10	249	47.244053081991	0
10	250	47.444053081991	0
10	251	47.644053081991	0
10	252	47.844053081991	0
10	253	47.899923711579	0
10	254	48.099923711579	0
10	255	48.299923711579	0
10	256	48.499923711579	0
10	257	48.699923711579	0
10	258	48.899923711579	0
10	259	49.099923711579	0
10	260	49.299923711579	0
10	261	49.499923711579	0
10	262	49.699923711579	0
10	263	49.899923711579	0
10	264	50.099923711579	0
10	265	50.299923711579	0
10	266	50.499923711579	0
10	267	50.699923711579	0
10	268	50.899923711579	0
10	269	51.03366847751	0
10	270	51.23366847751	0
10	271	51.43366847751	0
10	272	51.63366847751	0
10	273	51.83366847751	0
10	274	52.03366847751	0
10	275	52.23366847751	0
10	276	52.43366847751	0
10	277	52.63366847751	0
10	278	52.83366847751	0
10	279	53.03366847751	0
10	280	53.23366847751	0
10	281	53.301456842681	0
10	282	53.501456842681	0
10	283	53.701456842681	0
10	284	53.901456842681	0
10	285	54.101456842681	0
10	286	54.301456842681	0
10	287	54.501456842681	0
10	288	54.701456842681	0
10	289	54.901456842681	0
10	290	55.101456842681	0
10	291	55.301456842681	0
10	292	55.501456842681	0
10	293	55.701456842681	0
10	294	55.854162092823	0
10	295	56.054162092823	0
10	296	56.254162092823	0
10	297	56.454162092823	0
10	298	56.649891140516	0
10	299	56.849891140516	0
10	300	57.049891140516	0
10	301	57.249891140516	0
10	302	57.449891140516	0
10	303	57.649891140516	0
10	304	57.849891140516	0
10	305	58.049891140516	0
10	306	58.249891140516	0
10	307	58.449891140516	0
10	308	58.649891140516	0
10	309	58.832304558708	0
10	310	59.032304558708	0
10	311	59.232304558708	0
10	312	59.432304558708	0
10	313	59.632304558708	0
10	314	59.832304558708	0
10	315	60.032304558708	0
10	316	60.232304558708	0
10	317	60.432304558708	0
10	318	60.632304558708	0
10	319	60.832304558708	0
10	320	61.032304558708	0
10	321	61.232304558708	0
10	322	61.432304558708	0
10	323	61.632304558708	0
10	324	61.717700460852	0
10	325	61.917700460852	0
10	326	62.117700460852	0
10	327	62.317700460852	0
10	328	62.517700460852	0
10	329	62.717700460852	0
10	330	62.917700460852	0
10	331	63.117700460852	0
10	332	63.317700460852	0
10	333	63.517700460852	0
10	334	63.717700460852	0
10	335	63.917700460852	0
10	336	64.117700460852	0
10	337	64.317700460852	0
10	338	64.517700460852	0
10	339	64.717700460852	0
10	340	64.917700460852	0
10	341	65.037350748239	0
10	342	65.237350748239	0
10	343	65.437350748239	0
10	344	65.637350748239	0
10	345	65.837350748239	0
10	346	66.037350748239	0
10	347	66.237350748239	0
10	348	66.437350748239	0
10	349	66.637350748239	0
10	350	66.837350748239	0
10	351	66.882375948936	0
10	352	67.082375948936	0
10	353	67.282375948936	0
10	354	67.482375948936	0
10	355	67.682375948936	0
10	356	67.882375948936	0
10	357	68.082375948936	0
10	358	68.282375948936	0
10	359	68.482375948936	0
10	360	68.557343314904	0
10	361	68.757343314904	0
10	362	68.957343314904	0
10	363	69.157343314904	0
10	364	69.357343314904	0
10	365	69.557343314904	0
10	366	69.757343314904	0
10	367	69.957343314904	0
10	368	70.157343314904	0
10	369	70.357343314904	0
10	370	70.557343314904	0
10	371	70.757343314904	0
10	372	70.836761369085	0
10	373	71.036761369085	0
10	374	71.236761369085	0
10	375	71.436761369085	0
10	376	71.636761369085	0
10	377	71.836761369085	0
10	378	72.036761369085	0
10	379	72.236761369085	0
10	380	72.436761369085	0
10	381	72.636761369085	0
10	382	72.836761369085	0
10	383	73.036761369085	0
10	384	73.236761369085	0
10	385	73.436761369085	0
10	386	73.636761369085	0
10	387	73.836761369085	0
10	388	73.878242899524	0
10	389	74.078242899524	0
10	390	74.278242899524	0
10	391	74.478242899524	0
10	392	74.678242899524	0
10	393	74.878242899524	0
10	394	75.078242899524	0
10	395	75.140527036942	0
10	396	75.340527036942	0
10	397	75.540527036942	0
10	398	75.740527036942	0
10	399	75.940527036942	0
10	400	76.140527036942	0
10	401	76.340527036942	0
10	402	76.540527036942	0
10	403	76.740527036942	0
10	404	76.940527036942	0
10	405	77.140527036942	0
10	406	77.340527036942	0
10	407	77.540527036942	0
10	408	77.552398668956	0
10	409	77.752398668956	0
10	410	77.952398668956	0
10	411	78.152398668956	0
10	412	78.352398668956	0
10	413	78.552398668956	0
10	414	78.752398668956	0
10	415	78.952398668956	0
10	416	79.152398668956	0
10	417	79.352398668956	0
10	418	79.552398668956	0
10	419	79.752398668956	0
10	420	79.851188769145	0
11	0	0	0
11	1	0.2	0
11	2	0.4	0
11	3	0.6	0
11	4	0.8	0
11	5	1	0
11	6	1.2	0
11	7	1.4	0
11	8	1.6	0
11	9	1.8	0
11	10	2	0
11	11	2.2	0
11	12	2.4	0
11	13	2.584462308485	0
11	14	2.784462308485	0
11	15	2.984462308485	0
11	16	3.184462308485	0
11	17	3.384462308485	0
11	18	3.584462308485	0
11	19	3.784462308485	0
11	20	3.984462308485	0
11	21	4.184462308485	0
11	22	4.384462308485	0
11	23	4.476128157017	0
11	24	4.676128157017	0
11	25	4.876128157017	0
11	26	5.076128157017	0
11	27	5.276128157017	0
11	28	5.476128157017	0
11	29	5.676128157017	0
11	30	5.876128157017	0
11	31	6.076128157017	0
11	32	6.276128157017	0
11	33	6.476128157017	0
11	34	6.676128157017	0
11	35	6.751998792689	0
11	36	6.951998792689	0
11	37	7.151998792689	0
11	38	7.351998792689	0
11	39	7.551998792689	0
11	40	7.751998792689	0
11	41	7.951998792689	0
11	42	8.151998792689	0
11	43	8.351998792689	0
11	44	8.551998792689	0
11	45	8.751998792689	0
11	46	8.951998792689	0
11	47	9.003741703666	0
11	48	9.203741703666	0
11	49	9.403741703666	0
11	50	9.603741703666	0
11	51	9.803741703666	0
11	52	10.003741703666	0
11	53	10.203741703666	0
11	54	10.403741703666	0
11	55	10.603741703666	0
11	56	10.803741703666	0
11	57	11.003741703666	0
11	58	11.203741703666	0
11	59	11.341811837511	0
11	60	11.541811837511	0
11	61	11.741811837511	0
11	62	11.941811837511	0
11	63	12.141811837511	0
11	64	12.341811837511	0
11	65	12.541811837511	0
11	66	12.741811837511	0
11	67	12.941811837511	0
11	68	13.141811837511	0
11	69	13.341811837511	0
11	70	13.541811837511	0
11	71	13.585024712019	0
11	72	13.785024712019	0
11	73	13.985024712019	0
11	74	14.185024712019	0
11	75	14.385024712019	0
11	76	14.585024712019	0
11	77	14.785024712019	0
11	78	14.985024712019	0
11	79	15.185024712019	0
11	80	15.385024712019	0
11	81	15.418752820587	0
11	82	15.618752820587	0
11	83	15.818752820587	0
11	84	16.018752820587	0
11	85	16.218752820587	0
11	86	16.418752820587	0
11	87	16.618752820587	0
11	88	16.818752820587	0
11	89	16.958642163497	0
11	90	17.158642163497	0
11	91	17.358642163497	0
11	92	17.558642163497	0
11	93	17.758642163497	0
11	94	17.958642163497	0
11	95	18.158642163497	0
11	96	18.358642163497	0
11	97	18.558642163497	0
11	98	18.758642163497	0
11	99	18.837455222982	0
11	100	19.037455222982	0
11	101	19.237455222982	0
11	102	19.437455222982	0
11	103	19.637455222982	0
11	104	19.837455222982	0
11	105	20.037455222982	0
11	106	20.11625123363	0
11	107	20.31625123363	0
11	108	20.51625123363	0
11	109	20.71625123363	0
11	110	20.91625123363	0
11	111	21.11625123363	0
11	112	21.31625123363	0
11	113	21.51625123363	0
11	114	21.71625123363	0
11	115	21.91625123363	0
11	116	21.998074800703	0
11	117	22.198074800703	0
11	118	22.398074800703	0
11	119	22.598074800703	0
11	120	22.798074800703	0
11	121	22.998074800703	0
11	122	23.198074800703	0
11	123	23.398074800703	0
11	124	23.598074800703	0
11	125	23.798074800703	0
11	126	23.998074800703	0
11	127	24.135794716567	0
11	128	24.335794716567	0
11	129	24.535794716567	0
11	130	24.735794716567	0
11	131	24.935794716567	0
11	132	25.135794716567	0
11	133	25.335794716567	0
11	134	25.535794716567	0
11	135	25.735794716567	0
11	136	25.90351284583	0
11	137	26.10351284583	0
11	138	26.30351284583	0
11	139	26.50351284583	0
11	140	26.70351284583	0
11	141	26.90351284583	0
11	142	27.10351284583	0
11	143	27.30351284583	0
11	144	27.50351284583	0
11	145	27.70351284583	0
11	146	27.90351284583	0
11	147	28.10351284583	0
11	148	28.30351284583	0
11	149	28.333430998607	0
11	150	28.533430998607	0
11	151	28.733430998607	0
11	152	28.933430998607	0
11	153	29.133430998607	0
11	154	29.333430998607	0
11	155	29.533430998607	0
11	156	29.733430998607	0
11	157	29.933430998607	0
11	158	30.133430998607	0
11	159	30.333430998607	0
11	160	30.533430998607	0
11	161	30.733430998607	0
11	162	30.933430998607	0
11	163	31.034875779199	0
11	164	31.234875779199	0
11	165	31.434875779199	0
11	166	31.634875779199	0
11	167	31.834875779199	0
11	168	32.034875779199	0
11	169	32.234875779199	0
11	170	32.434875779199	0
11	171	32.634875779199	0
11	172	32.834875779199	0
11	173	33.034875779199	0
11	174	33.234875779199	0
11	175	33.434875779199	0
11	176	33.634875779199	0
11	177	33.741129558945	0
11	178	33.941129558945	0
11	179	34.141129558945	0
11	180	34.341129558945	0
11	181	34.541129558945	0
11	182	34.741129558945	0
11	183	34.941129558945	0
11	184	35.141129558945	0
11	185	35.145844058995	0
11	186	35.345844058995	0
11	187	35.545844058995	0
11	188	35.745844058995	0
11	189	35.945844058995	0
11	190	36.145844058995	0
11	191	36.345844058995	0
11	192	36.545844058995	0
11	193	36.745844058995	0
11	194	36.945844058995	0
11	195	37.145844058995	0
11	196	37.345844058995	0
11	197	37.545844058995	0
11	198	37.745844058995	0
11	199	37.875464774527	0
11	200	38.075464774527	0
11	201	38.275464774527	0
11	202	38.475464774527	0
11	203	38.675464774527	0
11	204	38.875464774527	0
11	205	39.075464774527	0
11	206	39.275464774527	0
11	207	39.475464774527	0
11	208	39.536122172235	0
11	209	39.736122172235	0
11	210	39.936122172235	0
11	211	40.136122172235	0
11	212	40.336122172235	0
11	213	40.536122172235	0
11	214	40.736122172235	0
11	215	40.829259190238	0
11	216	41.029259190238	0
11	217	41.229259190238	0
11	218	41.429259190238	0
11	219	41.629259190238	0
11	220	41.829259190238	0
11	221	42.029259190238	0
11	222	42.229259190238	0
11	223	42.232380172007	0
11	224	42.432380172007	0
11	225	42.632380172007	0
11	226	42.832380172007	0
11	227	43.032380172007	0
11	228	43.232380172007	0
11	229	43.432380172007	0
11	230	43.632380172007	0
11	231	43.832380172007	0
11	232	44.032380172007	0
11	233	44.232380172007	0
11	234	44.285125851177	0
11	235	44.485125851177	0
11	236	44.685125851177	0
11	237	44.885125851177	0
11	238	45.085125851177	0
11	239	45.285125851177	0
11	240	45.444053081991	0
11	241	45.644053081991	0
11	242	45.844053081991	0
11	243	46.044053081991	0
11	244	46.244053081991	0
11	245	46.444053081991	0
11	246	46.644053081991	0
11	247	46.844053081991	0
11	248	47.044053081991	0
11	249	47.244053081991	0
11	250	47.444053081991	0
11	251	47.644053081991	0
11	252	47.844053081991	0
11	253	47.899923711579	0
11	254	48.099923711579	0
11	255	48.299923711579	0
11	256	48.499923711579	0
11	257	48.699923711579	0
11	258	48.899923711579	0
11	259	49.099923711579	0
11	260	49.299923711579	0
11	261	49.499923711579	0
11	262	49.699923711579	0
11	263	49.899923711579	0
11	264	50.099923711579	0
11	265	50.299923711579	0
11	266	50.499923711579	0
11	267	50.699923711579	0
11	268	50.899923711579	0
11	269	51.03366847751	0
11	270	51.23366847751	0
11	271	51.43366847751	0
11	272	51.63366847751	0
11	273	51.83366847751	0
11	274	52.03366847751	0
11	275	52.23366847751	0
11	276	52.43366847751	0
11	277	52.63366847751	0
11	278	52.83366847751	0
11	279	53.03366847751	0
11	280	53.23366847751	0
11	281	53.301456842681	0
11	282	53.501456842681	0
11	283	53.701456842681	0
11	284	53.901456842681	0
11	285	54.101456842681	0
11	286	54.301456842681	0
11	287	54.501456842681	0
11	288	54.701456842681	0
11	289	54.901456842681	0
11	290	55.101456842681	0
11	291	55.301456842681	0
11	292	55.501456842681	0
11	293	55.701456842681	0
11	294	55.854162092823	0
11	295	56.054162092823	0
11	296	56.254162092823	0
11	297	56.454162092823	0
11	298	56.649891140516	0
11	299	56.849891140516	0
11	300	57.049891140516	0
11	301	57.249891140516	0
11	302	57.449891140516	0
11	303	57.649891140516	0
11	304	57.849891140516	0
11	305	58.049891140516	0
11	306	58.249891140516	0
11	307	58.449891140516	0
11	308	58.649891140516	0
11	309	58.832304558708	0
11	310	59.032304558708	0
11	311	59.232304558708	0
11	312	59.432304558708	0
11	313	59.632304558708	0
11	314	59.832304558708	0
11	315	60.032304558708	0
11	316	60.232304558708	0
11	317	60.432304558708	0
11	318	60.632304558708	0
11	319	60.832304558708	0
11	320	61.032304558708	0
11	321	61.232304558708	0
11	322	61.432304558708	0
11	323	61.632304558708	0
11	324	61.717700460852	0
11	325	61.917700460852	0
11	326	62.117700460852	0
11	327	62.317700460852	0
11	328	62.517700460852	0
11	329	62.717700460852	0
11	330	62.917700460852	0
11	331	63.117700460852	0
11	332	63.317700460852	0
11	333	63.517700460852	0
11	334	63.717700460852	0
11	335	63.917700460852	0
11	336	64.117700460852	0
11	337	64.317700460852	0
11	338	64.517700460852	0
11	339	64.717700460852	0
11	340	64.917700460852	0
11	341	65.037350748239	0
11	342	65.237350748239	0
11	343	65.437350748239	0
11	344	65.637350748239	0
11	345	65.837350748239	0
11	346	66.037350748239	0
11	347	66.237350748239	0
11	348	66.437350748239	0
11	349	66.637350748239	0
11	350	66.837350748239	0
11	351	66.882375948936	0
11	352	67.082375948936	0
11	353	67.282375948936	0
11	354	67.482375948936	0
11	355	67.682375948936	0
11	356	67.882375948936	0
11	357	68.082375948936	0
11	358	68.282375948936	0
11	359	68.482375948936	0
11	360	68.557343314904	0
11	361	68.757343314904	0
11	362	68.957343314904	0
11	363	69.157343314904	0
11	364	69.357343314904	0
11	365	69.557343314904	0
11	366	69.757343314904	0
11	367	69.957343314904	0
11	368	70.157343314904	0
11	369	70.357343314904	0
11	370	70.557343314904	0
11	371	70.757343314904	0
11	372	70.836761369085	0
11	373	71.036761369085	0
11	374	71.236761369085	0
11	375	71.436761369085	0
11	376	71.636761369085	0
11	377	71.836761369085	0
11	378	72.036761369085	0
11	379	72.236761369085	0
11	380	72.436761369085	0
11	381	72.636761369085	0
11	382	72.836761369085	0
11	383	73.036761369085	0
11	384	73.236761369085	0
11	385	73.436761369085	0
11	386	73.636761369085	0
11	387	73.836761369085	0
11	388	73.878242899524	0
11	389	74.078242899524	0
11	390	74.278242899524	0
11	391	74.478242899524	0
11	392	74.678242899524	0
11	393	74.878242899524	0
11	394	75.078242899524	0
11	395	75.140527036942	0
11	396	75.340527036942	0
11	397	75.540527036942	0
11	398	75.740527036942	0
11	399	75.940527036942	0
11	400	76.140527036942	0
11	401	76.340527036942	0
11	402	76.540527036942	0
11	403	76.740527036942	0
11	404	76.940527036942	0
11	405	77.140527036942	0
11	406	77.340527036942	0
11	407	77.540527036942	0
11	408	77.552398668956	0
11	409	77.752398668956	0
11	410	77.952398668956	0
11	411	78.152398668956	0
11	412	78.352398668956	0
11	413	78.552398668956	0
11	414	78.752398668956	0
11	415	78.952398668956	0
11	416	79.152398668956	0
11	417	79.352398668956	0
11	418	79.552398668956	0
11	419	79.752398668956	0
11	420	79.851188769145	0
12	0	0	0
12	1	0.2	0
12	2	0.4	0
12	3	0.6	0
12	4	0.8	0
12	5	1	0
12	6	1.2	0
12	7	1.4	0
12	8	1.6	0
12	9	1.8	0
12	10	2	0
12	11	2.2	0
12	12	2.4	0
12	13	2.584462308485	0
12	14	2.784462308485	0
12	15	2.984462308485	0
12	16	3.184462308485	0
12	17	3.384462308485	0
12	18	3.584462308485	0
12	19	3.784462308485	0
12	20	3.984462308485	0
12	21	4.184462308485	0
12	22	4.384462308485	0
12	23	4.476128157017	0
12	24	4.676128157017	0
12	25	4.876128157017	0
12	26	5.076128157017	0
12	27	5.276128157017	0
12	28	5.476128157017	0
12	29	5.676128157017	0
12	30	5.876128157017	0
12	31	6.076128157017	0
12	32	6.276128157017	0
12	33	6.476128157017	0
12	34	6.676128157017	0
12	35	6.751998792689	0
12	36	6.951998792689	0
12	37	7.151998792689	0
12	38	7.351998792689	0
12	39	7.551998792689	0
12	40	7.751998792689	0
12	41	7.951998792689	0
12	42	8.151998792689	0
12	43	8.351998792689	0
12	44	8.551998792689	0
12	45	8.751998792689	0
12	46	8.951998792689	0
12	47	9.003741703666	0
12	48	9.203741703666	0
12	49	9.403741703666	0
12	50	9.603741703666	0
12	51	9.803741703666	0
12	52	10.003741703666	0
12	53	10.203741703666	0
12	54	10.403741703666	0
12	55	10.603741703666	0
12	56	10.803741703666	0
12	57	11.003741703666	0
12	58	11.203741703666	0
12	59	11.341811837511	0
12	60	11.541811837511	0
12	61	11.741811837511	0
12	62	11.941811837511	0
12	63	12.141811837511	0
12	64	12.341811837511	0
12	65	12.541811837511	0
12	66	12.741811837511	0
12	67	12.941811837511	0
12	68	13.141811837511	0
12	69	13.341811837511	0
12	70	13.541811837511	0
12	71	13.585024712019	0
12	72	13.785024712019	0
12	73	13.985024712019	0
12	74	14.185024712019	0
12	75	14.385024712019	0
12	76	14.585024712019	0
12	77	14.785024712019	0
12	78	14.985024712019	0
12	79	15.185024712019	0
12	80	15.385024712019	0
12	81	15.418752820587	0
12	82	15.618752820587	0
12	83	15.818752820587	0
12	84	16.018752820587	0
12	85	16.218752820587	0
12	86	16.418752820587	0
12	87	16.618752820587	0
12	88	16.818752820587	0
12	89	16.958642163497	0
12	90	17.158642163497	0
12	91	17.358642163497	0
12	92	17.558642163497	0
12	93	17.758642163497	0
12	94	17.958642163497	0
12	95	18.158642163497	0
12	96	18.358642163497	0
12	97	18.558642163497	0
12	98	18.758642163497	0
12	99	18.837455222982	0
12	100	19.037455222982	0
12	101	19.237455222982	0
12	102	19.437455222982	0
12	103	19.637455222982	0
12	104	19.837455222982	0
12	105	20.037455222982	0
12	106	20.11625123363	0
12	107	20.31625123363	0
12	108	20.51625123363	0
12	109	20.71625123363	0
12	110	20.91625123363	0
12	111	21.11625123363	0
12	112	21.31625123363	0
12	113	21.51625123363	0
12	114	21.71625123363	0
12	115	21.91625123363	0
12	116	21.998074800703	0
12	117	22.198074800703	0
12	118	22.398074800703	0
12	119	22.598074800703	0
12	120	22.798074800703	0
12	121	22.998074800703	0
12	122	23.198074800703	0
12	123	23.398074800703	0
12	124	23.598074800703	0
12	125	23.798074800703	0
12	126	23.998074800703	0
12	127	24.135794716567	0
12	128	24.335794716567	0
12	129	24.535794716567	0
12	130	24.735794716567	0
12	131	24.935794716567	0
12	132	25.135794716567	0
12	133	25.335794716567	0
12	134	25.535794716567	0
12	135	25.735794716567	0
12	136	25.90351284583	0
12	137	26.10351284583	0
12	138	26.30351284583	0
12	139	26.50351284583	0
12	140	26.70351284583	0
12	141	26.90351284583	0
12	142	27.10351284583	0
12	143	27.30351284583	0
12	144	27.50351284583	0
12	145	27.70351284583	0
12	146	27.90351284583	0
12	147	28.10351284583	0
12	148	28.30351284583	0
12	149	28.333430998607	0
12	150	28.533430998607	0
12	151	28.733430998607	0
12	152	28.933430998607	0
12	153	29.133430998607	0
12	154	29.333430998607	0
12	155	29.533430998607	0
12	156	29.733430998607	0
12	157	29.933430998607	0
12	158	30.133430998607	0
12	159	30.333430998607	0
12	160	30.533430998607	0
12	161	30.733430998607	0
12	162	30.933430998607	0
12	163	31.034875779199	0
12	164	31.234875779199	0
12	165	31.434875779199	0
12	166	31.634875779199	0
12	167	31.834875779199	0
12	168	32.034875779199	0
12	169	32.234875779199	0
12	170	32.434875779199	0
12	171	32.634875779199	0
12	172	32.834875779199	0