version 3
run CompareAll-0-20241205-14:17:32-31972
attr configname CompareAll
attr datetime 20241205-14:17:32
attr datetimef 20241205-141732
attr experiment CompareAll
attr inifile omnetpp.ini
attr iterationvars ""
attr iterationvarsd ""
attr iterationvarsf ""
attr measurement ""
attr network ParcelDeliveryNetwork
attr processid 31972
attr repetition 0
attr replication #0
attr resultdir results
attr runnumber 0
attr seedset 0
config image-path ../inet4.5/images
config network ParcelDeliveryNetwork
config description "Multiple drones with different algorithms"
config *.numdrones 3
config **.drone*.mobility.typename DroneNetMob
config **.drone[*].mobility.ndst 50
config **.drone[*].mobility.nd 8
config **.drone[*].mobility.npar 100
config **.drone[*].mobility.initFromDisplayString false
config **.drone[*].mobility.changeInterval "truncnormal(2s, 0.5s)"
config **.drone[*].mobility.angleDelta "normal(0deg, 30deg)"
config **.drone[*].mobility.speed 10mps
config **.drone[*].mobility.remainingBattery 12800
config **.drone[*].mobility.weightCapacity 200
config **.drone[0].mobility.parcelSelectionMethod 0
config **.drone[1].mobility.parcelSelectionMethod 1
config **.drone[2].mobility.parcelSelectionMethod 2
config **.drone[0].mobility.initialX 0m
config **.drone[0].mobility.initialY 0m
config **.drone[0].mobility.initialZ 0m
config **.drone[1].mobility.initialX 0m
config **.drone[1].mobility.initialY 0m
config **.drone[1].mobility.initialZ 0m
config **.drone[2].mobility.initialX 0m
config **.drone[2].mobility.initialY 0m
config **.drone[2].mobility.initialZ 0m
config sim-time-limit 200second
config **.constraintAreaMinX 0m
config **.constraintAreaMinY 0m
config **.constraintAreaMinZ 0m
config **.constraintAreaMaxX 600m
config **.constraintAreaMaxY 400m
config **.constraintAreaMaxZ 0m
config **.updateInterval 0.2s

vector 0 ParcelDeliveryNetwork.drone[0].wlan[0].mac.dcf frameSequenceActive:vector ETV
attr autoWarmupFilter false
attr interpolationmode sample-hold
attr recordingmode vector
attr source warmup(count(frameSequenceStarted)-count(frameSequenceFinished))
attr title "frame sequence active"
vector 1 ParcelDeliveryNetwork.drone[0].wlan[0].mac.dcf.channelAccess.pendingQueue queueLength:vector ETV
attr autoWarmupFilter false
attr interpolationmode sample-hold
attr recordingmode vector
attr source "warmup(atomic(constant0(packetPushEnded) + count(packetPushStarted) - count(packetPulled) - count(packetRemoved) - count(packetDropped)))"
attr title "queue length"
attr unit pk
vector 2 ParcelDeliveryNetwork.drone[0].wlan[0].mac.dcf.channelAccess.pendingQueue queueBitLength:vector ETV
attr autoWarmupFilter false
attr interpolationmode sample-hold
attr recordingmode vector
attr source "warmup(atomic(constant0(packetPushEnded) + sum(packetLength(packetPushStarted)) - sum(packetLength(packetPulled)) - sum(packetLength(packetRemoved)) - sum(packetLength(packetDropped))))"
attr title "queue bit length"
attr unit b
vector 3 ParcelDeliveryNetwork.drone[0].wlan[0].mac.dcf.channelAccess.inProgressFrames queueLength:vector ETV
attr autoWarmupFilter false
attr interpolationmode sample-hold
attr recordingmode vector
attr source "warmup(count(packetEnqueued) - count(packetDequeued))"
attr title "queue length"
vector 4 ParcelDeliveryNetwork.drone[0].wlan[0].mac.dcf.channelAccess.contention backoffActive:vector ETV
attr autoWarmupFilter false
attr interpolationmode sample-hold
attr recordingmode vector
attr source warmup(count(backoffStarted)-count(backoffStopped))
attr title "backoff active"
vector 5 ParcelDeliveryNetwork.drone[0].udp passedUpPk:vector(count) ETV
attr interpolationmode none
attr recordingmode vector(count)
attr source packetSentToUpper
attr title "packets passed up, count"
vector 6 ParcelDeliveryNetwork.drone[0].udp droppedPkWrongPort:vector(count) ETV
attr interpolationmode none
attr recordingmode vector(count)
attr source packetDropReasonIsNoPortFound(packetDropped)
attr title "packets dropped (wrong port), count"
vector 7 ParcelDeliveryNetwork.drone[0].udp droppedPkBadChecksum:vector(count) ETV
attr interpolationmode none
attr recordingmode vector(count)
attr source packetDropReasonIsIncorrectlyReceived(packetDropped)
attr title "packets dropped (checksum error), count"
vector 8 ParcelDeliveryNetwork.drone[1].wlan[0].mac.dcf frameSequenceActive:vector ETV
attr autoWarmupFilter false
attr interpolationmode sample-hold
attr recordingmode vector
attr source warmup(count(frameSequenceStarted)-count(frameSequenceFinished))
attr title "frame sequence active"
vector 9 ParcelDeliveryNetwork.drone[1].wlan[0].mac.dcf.channelAccess.pendingQueue queueLength:vector ETV
attr autoWarmupFilter false
attr interpolationmode sample-hold
attr recordingmode vector
attr source "warmup(atomic(constant0(packetPushEnded) + count(packetPushStarted) - count(packetPulled) - count(packetRemoved) - count(packetDropped)))"
attr title "queue length"
attr unit pk
vector 10 ParcelDeliveryNetwork.drone[1].wlan[0].mac.dcf.channelAccess.pendingQueue queueBitLength:vector ETV
attr autoWarmupFilter false
attr interpolationmode sample-hold
attr recordingmode vector
attr source "warmup(atomic(constant0(packetPushEnded) + sum(packetLength(packetPushStarted)) - sum(packetLength(packetPulled)) - sum(packetLength(packetRemoved)) - sum(packetLength(packetDropped))))"
attr title "queue bit length"
attr unit b
vector 11 ParcelDeliveryNetwork.drone[1].wlan[0].mac.dcf.channelAccess.inProgressFrames queueLength:vector ETV
attr autoWarmupFilter false
attr interpolationmode sample-hold
attr recordingmode vector
attr source "warmup(count(packetEnqueued) - count(packetDequeued))"
attr title "queue length"
vector 12 ParcelDeliveryNetwork.drone[1].wlan[0].mac.dcf.channelAccess.contention backoffActive:vector ETV
attr autoWarmupFilter false
attr interpolationmode sample-hold
attr recordingmode vector
attr source warmup(count(backoffStarted)-count(backoffStopped))
attr title "backoff active"
vector 13 ParcelDeliveryNetwork.drone[1].udp passedUpPk:vector(count) ETV
attr interpolationmode none
attr recordingmode vector(count)
attr source packetSentToUpper
attr title "packets passed up, count"
vector 14 ParcelDeliveryNetwork.drone[1].udp droppedPkWrongPort:vector(count) ETV
attr interpolationmode none
attr recordingmode vector(count)
attr source packetDropReasonIsNoPortFound(packetDropped)
attr title "packets dropped (wrong port), count"
vector 15 ParcelDeliveryNetwork.drone[1].udp droppedPkBadChecksum:vector(count) ETV
attr interpolationmode none
attr recordingmode vector(count)
attr source packetDropReasonIsIncorrectlyReceived(packetDropped)
attr title "packets dropped (checksum error), count"
vector 16 ParcelDeliveryNetwork.drone[2].wlan[0].mac.dcf frameSequenceActive:vector ETV
attr autoWarmupFilter false
attr interpolationmode sample-hold
attr recordingmode vector
attr source warmup(count(frameSequenceStarted)-count(frameSequenceFinished))
attr title "frame sequence active"
vector 17 ParcelDeliveryNetwork.drone[2].wlan[0].mac.dcf.channelAccess.pendingQueue queueLength:vector ETV
attr autoWarmupFilter false
attr interpolationmode sample-hold
attr recordingmode vector
attr source "warmup(atomic(constant0(packetPushEnded) + count(packetPushStarted) - count(packetPulled) - count(packetRemoved) - count(packetDropped)))"
attr title "queue length"
attr unit pk
vector 18 ParcelDeliveryNetwork.drone[2].wlan[0].mac.dcf.channelAccess.pendingQueue queueBitLength:vector ETV
attr autoWarmupFilter false
attr interpolationmode sample-hold
attr recordingmode vector
attr source "warmup(atomic(constant0(packetPushEnded) + sum(packetLength(packetPushStarted)) - sum(packetLength(packetPulled)) - sum(packetLength(packetRemoved)) - sum(packetLength(packetDropped))))"
attr title "queue bit length"
attr unit b
vector 19 ParcelDeliveryNetwork.drone[2].wlan[0].mac.dcf.channelAccess.inProgressFrames queueLength:vector ETV
attr autoWarmupFilter false
attr interpolationmode sample-hold
attr recordingmode vector
attr source "warmup(count(packetEnqueued) - count(packetDequeued))"
attr title "queue length"
vector 20 ParcelDeliveryNetwork.drone[2].wlan[0].mac.dcf.channelAccess.contention backoffActive:vector ETV
attr autoWarmupFilter false
attr interpolationmode sample-hold
attr recordingmode vector
attr source warmup(count(backoffStarted)-count(backoffStopped))
attr title "backoff active"
vector 21 ParcelDeliveryNetwork.drone[2].udp passedUpPk:vector(count) ETV
attr interpolationmode none
attr recordingmode vector(count)
attr source packetSentToUpper
attr title "packets passed up, count"
vector 22 ParcelDeliveryNetwork.drone[2].udp droppedPkWrongPort:vector(count) ETV
attr interpolationmode none
attr recordingmode vector(count)
attr source packetDropReasonIsNoPortFound(packetDropped)
attr title "packets dropped (wrong port), count"
vector 23 ParcelDeliveryNetwork.drone[2].udp droppedPkBadChecksum:vector(count) ETV
attr interpolationmode none
attr recordingmode vector(count)
attr source packetDropReasonIsIncorrectlyReceived(packetDropped)
attr title "packets dropped (checksum error), count"
vector 24 ParcelDeliveryNetwork.gcs.wlan[0].mac.dcf frameSequenceActive:vector ETV
attr autoWarmupFilter false
attr interpolationmode sample-hold
attr recordingmode vector
attr source warmup(count(frameSequenceStarted)-count(frameSequenceFinished))
attr title "frame sequence active"
vector 25 ParcelDeliveryNetwork.gcs.wlan[0].mac.dcf.channelAccess.pendingQueue queueLength:vector ETV
attr autoWarmupFilter false
attr interpolationmode sample-hold
attr recordingmode vector
attr source "warmup(atomic(constant0(packetPushEnded) + count(packetPushStarted) - count(packetPulled) - count(packetRemoved) - count(packetDropped)))"
attr title "queue length"
attr unit pk
vector 26 ParcelDeliveryNetwork.gcs.wlan[0].mac.dcf.channelAccess.pendingQueue queueBitLength:vector ETV
attr autoWarmupFilter false
attr interpolationmode sample-hold
attr recordingmode vector
attr source "warmup(atomic(constant0(packetPushEnded) + sum(packetLength(packetPushStarted)) - sum(packetLength(packetPulled)) - sum(packetLength(packetRemoved)) - sum(packetLength(packetDropped))))"
attr title "queue bit length"
attr unit b
vector 27 ParcelDeliveryNetwork.gcs.wlan[0].mac.dcf.channelAccess.inProgressFrames queueLength:vector ETV
attr autoWarmupFilter false
attr interpolationmode sample-hold
attr recordingmode vector
attr source "warmup(count(packetEnqueued) - count(packetDequeued))"
attr title "queue length"
vector 28 ParcelDeliveryNetwork.gcs.wlan[0].mac.dcf.channelAccess.contention backoffActive:vector ETV
attr autoWarmupFilter false
attr interpolationmode sample-hold
attr recordingmode vector
attr source warmup(count(backoffStarted)-count(backoffStopped))
attr title "backoff active"
vector 29 ParcelDeliveryNetwork.gcs.udp passedUpPk:vector(count) ETV
attr interpolationmode none
attr recordingmode vector(count)
attr source packetSentToUpper
attr title "packets passed up, count"
vector 30 ParcelDeliveryNetwork.gcs.udp droppedPkWrongPort:vector(count) ETV
attr interpolationmode none
attr recordingmode vector(count)
attr source packetDropReasonIsNoPortFound(packetDropped)
attr title "packets dropped (wrong port), count"
vector 31 ParcelDeliveryNetwork.gcs.udp droppedPkBadChecksum:vector(count) ETV
attr interpolationmode none
attr recordingmode vector(count)
attr source packetDropReasonIsIncorrectlyReceived(packetDropped)
attr title "packets dropped (checksum error), count"
vector 32 ParcelDeliveryNetwork.drone[0].wlan[0].radio radioMode:vector ETV
attr interpolationmode sample-hold
attr recordingmode vector
attr source radioModeChanged
attr title "Radio mode"
vector 33 ParcelDeliveryNetwork.drone[0].wlan[0].radio radioChannel:vector ETV
attr interpolationmode sample-hold
attr recordingmode vector
attr source radioChannelChanged
attr title "Radio channel"
vector 34 ParcelDeliveryNetwork.drone[1].wlan[0].radio radioMode:vector ETV
attr interpolationmode sample-hold
attr recordingmode vector
attr source radioModeChanged
attr title "Radio mode"
vector 35 ParcelDeliveryNetwork.drone[1].wlan[0].radio radioChannel:vector ETV
attr interpolationmode sample-hold
attr recordingmode vector
attr source radioChannelChanged
attr title "Radio channel"
vector 36 ParcelDeliveryNetwork.drone[2].wlan[0].radio radioMode:vector ETV
attr interpolationmode sample-hold
attr recordingmode vector
attr source radioModeChanged
attr title "Radio mode"
vector 37 ParcelDeliveryNetwork.drone[2].wlan[0].radio radioChannel:vector ETV
attr interpolationmode sample-hold
attr recordingmode vector
attr source radioChannelChanged
attr title "Radio channel"
vector 38 ParcelDeliveryNetwork.gcs.wlan[0].radio radioMode:vector ETV
attr interpolationmode sample-hold
attr recordingmode vector
attr source radioModeChanged
attr title "Radio mode"
vector 39 ParcelDeliveryNetwork.gcs.wlan[0].radio radioChannel:vector ETV
attr interpolationmode sample-hold
attr recordingmode vector
attr source radioChannelChanged
attr title "Radio channel"
vector 40 ParcelDeliveryNetwork.drone[0].wlan[0].radio receptionState:vector ETV
attr interpolationmode sample-hold
attr recordingmode vector
attr source receptionStateChanged
attr title "Radio reception state"
vector 41 ParcelDeliveryNetwork.drone[0].wlan[0].mac.dcf.channelAccess.contention stateChanged:vector ETV
attr enum IDLE,DEFER,IFS_AND_BACKOFF
attr interpolationmode none
attr recordingmode vector
attr title "contention state changed"
attr type enum
vector 42 ParcelDeliveryNetwork.drone[1].wlan[0].radio receptionState:vector ETV
attr interpolationmode sample-hold
attr recordingmode vector
attr source receptionStateChanged
attr title "Radio reception state"
vector 43 ParcelDeliveryNetwork.drone[1].wlan[0].mac.dcf.channelAccess.contention stateChanged:vector ETV
attr enum IDLE,DEFER,IFS_AND_BACKOFF
attr interpolationmode none
attr recordingmode vector
attr title "contention state changed"
attr type enum
vector 44 ParcelDeliveryNetwork.drone[2].wlan[0].radio receptionState:vector ETV
attr interpolationmode sample-hold
attr recordingmode vector
attr source receptionStateChanged
attr title "Radio reception state"
vector 45 ParcelDeliveryNetwork.drone[2].wlan[0].mac.dcf.channelAccess.contention stateChanged:vector ETV
attr enum IDLE,DEFER,IFS_AND_BACKOFF
attr interpolationmode none
attr recordingmode vector
attr title "contention state changed"
attr type enum
vector 46 ParcelDeliveryNetwork.gcs.wlan[0].radio receptionState:vector ETV
attr interpolationmode sample-hold
attr recordingmode vector
attr source receptionStateChanged
attr title "Radio reception state"
vector 47 ParcelDeliveryNetwork.gcs.wlan[0].mac.dcf.channelAccess.contention stateChanged:vector ETV
attr enum IDLE,DEFER,IFS_AND_BACKOFF
attr interpolationmode none
attr recordingmode vector
attr title "contention state changed"
attr type enum
vector 48 ParcelDeliveryNetwork.drone[0].wlan[0].mac.dcf.recoveryProcedure contentionWindowChanged:vector ETV
attr interpolationmode sample-hold
attr recordingmode vector
attr title "contention window"
vector 49 ParcelDeliveryNetwork.drone[1].wlan[0].mac.dcf.recoveryProcedure contentionWindowChanged:vector ETV
attr interpolationmode sample-hold
attr recordingmode vector
attr title "contention window"
vector 50 ParcelDeliveryNetwork.drone[2].wlan[0].mac.dcf.recoveryProcedure contentionWindowChanged:vector ETV
attr interpolationmode sample-hold
attr recordingmode vector
attr title "contention window"
vector 51 ParcelDeliveryNetwork.gcs.wlan[0].mac.dcf.recoveryProcedure contentionWindowChanged:vector ETV
attr interpolationmode sample-hold
attr recordingmode vector
attr title "contention window"
vector 52 ParcelDeliveryNetwork.drone[0].wlan[0].mac.dcf.channelAccess.pendingQueue outgoingDataRate:vector ETV
attr interpolationmode linear
attr recordingmode vector
attr source throughput(packetPulled)
attr title "outgoing datarate"
attr unit bps
vector 53 ParcelDeliveryNetwork.drone[0].wlan[0].mac.dcf.channelAccess.pendingQueue incomingDataRate:vector ETV
attr interpolationmode linear
attr recordingmode vector
attr source throughput(packetPushStarted)
attr title "incoming datarate"
attr unit bps
vector 54 ParcelDeliveryNetwork.drone[1].wlan[0].mac.dcf.channelAccess.pendingQueue outgoingDataRate:vector ETV
attr interpolationmode linear
attr recordingmode vector
attr source throughput(packetPulled)
attr title "outgoing datarate"
attr unit bps
vector 55 ParcelDeliveryNetwork.drone[1].wlan[0].mac.dcf.channelAccess.pendingQueue incomingDataRate:vector ETV
attr interpolationmode linear
attr recordingmode vector
attr source throughput(packetPushStarted)
attr title "incoming datarate"
attr unit bps
vector 56 ParcelDeliveryNetwork.drone[2].wlan[0].mac.dcf.channelAccess.pendingQueue outgoingDataRate:vector ETV
attr interpolationmode linear
attr recordingmode vector
attr source throughput(packetPulled)
attr title "outgoing datarate"
attr unit bps
vector 57 ParcelDeliveryNetwork.drone[2].wlan[0].mac.dcf.channelAccess.pendingQueue incomingDataRate:vector ETV
attr interpolationmode linear
attr recordingmode vector
attr source throughput(packetPushStarted)
attr title "incoming datarate"
attr unit bps
vector 58 ParcelDeliveryNetwork.gcs.wlan[0].mac.dcf.channelAccess.pendingQueue outgoingDataRate:vector ETV
attr interpolationmode linear
attr recordingmode vector
attr source throughput(packetPulled)
attr title "outgoing datarate"
attr unit bps
vector 59 ParcelDeliveryNetwork.gcs.wlan[0].mac.dcf.channelAccess.pendingQueue incomingDataRate:vector ETV
attr interpolationmode linear
attr recordingmode vector
attr source throughput(packetPushStarted)
attr title "incoming datarate"
attr unit bps
0	0	0	0
0	0	0	0
1	0	0	0
1	0	0	0
1	0	0	0
1	0	0	0
1	0	0	0
2	0	0	0
2	0	0	0
2	0	0	0
2	0	0	0
2	0	0	0
3	0	0	0
3	0	0	0
4	0	0	0
4	0	0	0
5	0	0	0
6	0	0	0
7	0	0	0
8	0	0	0
8	0	0	0
9	0	0	0
9	0	0	0
9	0	0	0
9	0	0	0
9	0	0	0
10	0	0	0
10	0	0	0
10	0	0	0
10	0	0	0
10	0	0	0
11	0	0	0
11	0	0	0
12	0	0	0
12	0	0	0
13	0	0	0
14	0	0	0
15	0	0	0
16	0	0	0
16	0	0	0
17	0	0	0
17	0	0	0
17	0	0	0
17	0	0	0
17	0	0	0
18	0	0	0
18	0	0	0
18	0	0	0
18	0	0	0
18	0	0	0
19	0	0	0
19	0	0	0
20	0	0	0
20	0	0	0
21	0	0	0
22	0	0	0
23	0	0	0
24	0	0	0
24	0	0	0
25	0	0	0
25	0	0	0
25	0	0	0
25	0	0	0
25	0	0	0
26	0	0	0
26	0	0	0
26	0	0	0
26	0	0	0
26	0	0	0
27	0	0	0
27	0	0	0
28	0	0	0
28	0	0	0
29	0	0	0
30	0	0	0
31	0	0	0
32	0	0	0
32	0	0	0
32	0	0	2
33	0	0	0
34	0	0	0
34	0	0	0
34	0	0	2
35	0	0	0
36	0	0	0
36	0	0	0
36	0	0	2
37	0	0	0
38	0	0	0
38	0	0	0
38	0	0	2
39	0	0	0
40	0	0	1
41	0	0	0
41	0	0	0
42	0	0	1
43	0	0	0
43	0	0	0
44	0	0	1
45	0	0	0
45	0	0	0
46	0	0	1
47	0	0	0
47	0	0	0
48	0	0	31
49	0	0	31
50	0	0	31
51	0	0	31
52	3154	0.1	0
52	3154	0.2	0
52	3154	0.3	0
52	3154	0.4	0
52	3154	0.5	0
52	3154	0.6	0
52	3154	0.7	0
52	3154	0.8	0
52	3154	0.9	0
52	3154	1	0
52	3154	1.1	0
52	3154	1.2	0
52	3154	1.3	0
52	3154	1.4	0
52	3154	1.5	0
52	3154	1.6	0
52	3154	1.7	0
52	3154	1.8	0
52	3154	1.9	0
52	3154	2	0
52	3154	2.1	0
52	3154	2.2	0
52	3154	2.3	0
52	3154	2.4	0
52	3154	2.5	0
52	3154	2.6	0
52	3154	2.7	0
52	3154	2.8	0
52	3154	2.9	0
52	3154	3	0
52	3154	3.1	0
52	3154	3.2	0
52	3154	3.3	0
52	3154	3.4	0
52	3154	3.5	0
52	3154	3.6	0
52	3154	3.7	0
52	3154	3.8	0
52	3154	3.9	0
52	3154	4	0
52	3154	4.1	0
52	3154	4.2	0
52	3154	4.3	0
52	3154	4.4	0
52	3154	4.5	0
52	3154	4.6	0
52	3154	4.7	0
52	3154	4.8	0
52	3154	4.9	0
52	3154	5	0
52	3154	5.1	0
52	3154	5.2	0
52	3154	5.3	0
52	3154	5.4	0
52	3154	5.5	0
52	3154	5.6	0
52	3154	5.7	0
52	3154	5.8	0
52	3154	5.9	0
52	3154	6	0
52	3154	6.1	0
52	3154	6.2	0
52	3154	6.3	0
52	3154	6.4	0
52	3154	6.5	0
52	3154	6.6	0
52	3154	6.7	0
52	3154	6.8	0
52	3154	6.9	0
52	3154	7	0
52	3154	7.1	0
52	3154	7.2	0
52	3154	7.3	0
52	3154	7.4	0
52	3154	7.5	0
52	3154	7.6	0
52	3154	7.7	0
52	3154	7.8	0
52	3154	7.9	0
52	3154	8	0
52	3154	8.1	0
52	3154	8.2	0
52	3154	8.3	0
52	3154	8.4	0
52	3154	8.5	0
52	3154	8.6	0
52	3154	8.7	0
52	3154	8.8	0
52	3154	8.9	0
52	3154	9	0
52	3154	9.1	0
52	3154	9.2	0
52	3154	9.3	0
52	3154	9.4	0
52	3154	9.5	0
52	3154	9.6	0
52	3154	9.7	0
52	3154	9.8	0
52	3154	9.9	0
52	3154	10	0
52	3154	10.1	0
52	3154	10.2	0
52	3154	10.3	0
52	3154	10.4	0
52	3154	10.5	0
52	3154	10.6	0
52	3154	10.7	0
52	3154	10.8	0
52	3154	10.9	0
52	3154	11	0
52	3154	11.1	0
52	3154	11.2	0
52	3154	11.3	0
52	3154	11.4	0
52	3154	11.5	0
52	3154	11.6	0
52	3154	11.7	0
52	3154	11.8	0
52	3154	11.9	0
52	3154	12	0
52	3154	12.1	0
52	3154	12.2	0
52	3154	12.3	0
52	3154	12.4	0
52	3154	12.5	0
52	3154	12.6	0
52	3154	12.7	0
52	3154	12.8	0
52	3154	12.9	0
52	3154	13	0
52	3154	13.1	0
52	3154	13.2	0
52	3154	13.3	0
52	3154	13.4	0
52	3154	13.5	0
52	3154	13.6	0
52	3154	13.7	0
52	3154	13.8	0
52	3154	13.9	0
52	3154	14	0
52	3154	14.1	0
52	3154	14.2	0
52	3154	14.3	0
52	3154	14.4	0
52	3154	14.5	0
52	3154	14.6	0
52	3154	14.7	0
52	3154	14.8	0
52	3154	14.9	0
52	3154	15	0
52	3154	15.1	0
52	3154	15.2	0
52	3154	15.3	0
52	3154	15.4	0
52	3154	15.5	0
52	3154	15.6	0
52	3154	15.7	0
52	3154	15.8	0
52	3154	15.9	0
52	3154	16	0
52	3154	16.1	0
52	3154	16.2	0
52	3154	16.3	0
52	3154	16.4	0
52	3154	16.5	0
52	3154	16.6	0
52	3154	16.7	0
52	3154	16.8	0
52	3154	16.9	0
52	3154	17	0
52	3154	17.1	0
52	3154	17.2	0
52	3154	17.3	0
52	3154	17.4	0
52	3154	17.5	0
52	3154	17.6	0
52	3154	17.7	0
52	3154	17.8	0
52	3154	17.9	0
52	3154	18	0
52	3154	18.1	0
52	3154	18.2	0
52	3154	18.3	0
52	3154	18.4	0
52	3154	18.5	0
52	3154	18.6	0
52	3154	18.7	0
52	3154	18.8	0
52	3154	18.9	0
52	3154	19	0
52	3154	19.1	0
52	3154	19.2	0
52	3154	19.3	0
52	3154	19.4	0
52	3154	19.5	0
52	3154	19.6	0
52	3154	19.7	0
52	3154	19.8	0
52	3154	19.9	0
52	3154	20	0
52	3154	20.1	0
52	3154	20.2	0
52	3154	20.3	0
52	3154	20.4	0
52	3154	20.5	0
52	3154	20.6	0
52	3154	20.7	0
52	3154	20.8	0
52	3154	20.9	0
52	3154	21	0
52	3154	21.1	0
52	3154	21.2	0
52	3154	21.3	0
52	3154	21.4	0
52	3154	21.5	0
52	3154	21.6	0
52	3154	21.7	0
52	3154	21.8	0
52	3154	21.9	0
52	3154	22	0
52	3154	22.1	0
52	3154	22.2	0
52	3154	22.3	0
52	3154	22.4	0
52	3154	22.5	0
52	3154	22.6	0
52	3154	22.7	0
52	3154	22.8	0
52	3154	22.9	0
52	3154	23	0
52	3154	23.1	0
52	3154	23.2	0
52	3154	23.3	0
52	3154	23.4	0
52	3154	23.5	0
52	3154	23.6	0
52	3154	23.7	0
52	3154	23.8	0
52	3154	23.9	0
52	3154	24	0
52	3154	24.1	0
52	3154	24.2	0
52	3154	24.3	0
52	3154	24.4	0
52	3154	24.5	0
52	3154	24.6	0
52	3154	24.7	0
52	3154	24.8	0
52	3154	24.9	0
52	3154	25	0
52	3154	25.1	0
52	3154	25.2	0
52	3154	25.3	0
52	3154	25.4	0
52	3154	25.5	0
52	3154	25.6	0
52	3154	25.7	0
52	3154	25.8	0
52	3154	25.9	0
52	3154	26	0
52	3154	26.1	0
52	3154	26.2	0
52	3154	26.3	0
52	3154	26.4	0
52	3154	26.5	0
52	3154	26.6	0
52	3154	26.7	0
52	3154	26.8	0
52	3154	26.9	0
52	3154	27	0
52	3154	27.1	0
52	3154	27.2	0
52	3154	27.3	0
52	3154	27.4	0
52	3154	27.5	0
52	3154	27.6	0
52	3154	27.7	0
52	3154	27.8	0
52	3154	27.9	0
52	3154	28	0
52	3154	28.1	0
52	3154	28.2	0
52	3154	28.3	0
52	3154	28.4	0
52	3154	28.5	0
52	3154	28.6	0
52	3154	28.7	0
52	3154	28.8	0
52	3154	28.9	0
52	3154	29	0
52	3154	29.1	0
52	3154	29.2	0
52	3154	29.3	0
52	3154	29.4	0
52	3154	29.5	0
52	3154	29.6	0
52	3154	29.7	0
52	3154	29.8	0
52	3154	29.9	0
52	3154	30	0
52	3154	30.1	0
52	3154	30.2	0
52	3154	30.3	0
52	3154	30.4	0
52	3154	30.5	0
52	3154	30.6	0
52	3154	30.7	0
52	3154	30.8	0
52	3154	30.9	0
52	3154	31	0
52	3154	31.1	0
52	3154	31.2	0
52	3154	31.3	0
52	3154	31.4	0
52	3154	31.5	0
52	3154	31.6	0
52	3154	31.7	0
52	3154	31.8	0
52	3154	31.9	0
52	3154	32	0
52	3154	32.1	0
52	3154	32.2	0
52	3154	32.3	0
52	3154	32.4	0
52	3154	32.5	0
52	3154	32.6	0
52	3154	32.7	0
52	3154	32.8	0
52	3154	32.9	0
52	3154	33	0
52	3154	33.1	0
52	3154	33.2	0
52	3154	33.3	0
52	3154	33.4	0
52	3154	33.5	0
52	3154	33.6	0
52	3154	33.7	0
52	3154	33.8	0
52	3154	33.9	0
52	3154	34	0
52	3154	34.1	0
52	3154	34.2	0
52	3154	34.3	0
52	3154	34.4	0
52	3154	34.5	0
52	3154	34.6	0
52	3154	34.7	0
52	3154	34.8	0
52	3154	34.9	0
52	3154	35	0
52	3154	35.1	0
52	3154	35.2	0
52	3154	35.3	0
52	3154	35.4	0
52	3154	35.5	0
52	3154	35.6	0
52	3154	35.7	0
52	3154	35.8	0
52	3154	35.9	0
52	3154	36	0
52	3154	36.1	0
52	3154	36.2	0
52	3154	36.3	0
52	3154	36.4	0
52	3154	36.5	0
52	3154	36.6	0
52	3154	36.7	0
52	3154	36.8	0
52	3154	36.9	0
52	3154	37	0
52	3154	37.1	0
52	3154	37.2	0
52	3154	37.3	0
52	3154	37.4	0
52	3154	37.5	0
52	3154	37.6	0
52	3154	37.7	0
52	3154	37.8	0
52	3154	37.9	0
52	3154	38	0
52	3154	38.1	0
52	3154	38.2	0
52	3154	38.3	0
52	3154	38.4	0
52	3154	38.5	0
52	3154	38.6	0
52	3154	38.7	0
52	3154	38.8	0
52	3154	38.9	0
52	3154	39	0
52	3154	39.1	0
52	3154	39.2	0
52	3154	39.3	0
52	3154	39.4	0
52	3154	39.5	0
52	3154	39.6	0
52	3154	39.7	0
52	3154	39.8	0
52	3154	39.9	0
52	3154	40	0
52	3154	40.1	0
52	3154	40.2	0
52	3154	40.3	0
52	3154	40.4	0
52	3154	40.5	0
52	3154	40.6	0
52	3154	40.7	0
52	3154	40.8	0
52	3154	40.9	0
52	3154	41	0
52	3154	41.1	0
52	3154	41.2	0
52	3154	41.3	0
52	3154	41.4	0
52	3154	41.5	0
52	3154	41.6	0
52	3154	41.7	0
52	3154	41.8	0
52	3154	41.9	0
52	3154	42	0
52	3154	42.1	0
52	3154	42.2	0
52	3154	42.3	0
52	3154	42.4	0
52	3154	42.5	0
52	3154	42.6	0
52	3154	42.7	0
52	3154	42.8	0
52	3154	42.9	0
52	3154	43	0
52	3154	43.1	0
52	3154	43.2	0
52	3154	43.3	0
52	3154	43.4	0
52	3154	43.5	0
52	3154	43.6	0
52	3154	43.7	0
52	3154	43.8	0
52	3154	43.9	0
52	3154	44	0
52	3154	44.1	0
52	3154	44.2	0
52	3154	44.3	0
52	3154	44.4	0
52	3154	44.5	0
52	3154	44.6	0
52	3154	44.7	0
52	3154	44.8	0
52	3154	44.9	0
52	3154	45	0
52	3154	45.1	0
52	3154	45.2	0
52	3154	45.3	0
52	3154	45.4	0
52	3154	45.5	0
52	3154	45.6	0
52	3154	45.7	0
52	3154	45.8	0
52	3154	45.9	0
52	3154	46	0
52	3154	46.1	0
52	3154	46.2	0
52	3154	46.3	0
52	3154	46.4	0
52	3154	46.5	0
52	3154	46.6	0
52	3154	46.7	0
52	3154	46.8	0
52	3154	46.9	0
52	3154	47	0
52	3154	47.1	0
52	3154	47.2	0
52	3154	47.3	0
52	3154	47.4	0
52	3154	47.5	0
52	3154	47.6	0
52	3154	47.7	0
52	3154	47.8	0
52	3154	47.9	0
52	3154	48	0
52	3154	48.1	0
52	3154	48.2	0
52	3154	48.3	0
52	3154	48.4	0
52	3154	48.5	0
52	3154	48.6	0
52	3154	48.7	0
52	3154	48.8	0
52	3154	48.9	0
52	3154	49	0
52	3154	49.1	0
52	3154	49.2	0
52	3154	49.3	0
52	3154	49.4	0
52	3154	49.5	0
52	3154	49.6	0
52	3154	49.7	0
52	3154	49.8	0
52	3154	49.9	0
52	3154	50	0
52	3154	50.1	0
52	3154	50.2	0
52	3154	50.3	0
52	3154	50.4	0
52	3154	50.5	0
52	3154	50.6	0
52	3154	50.7	0
52	3154	50.8	0
52	3154	50.9	0
52	3154	51	0
52	3154	51.1	0
52	3154	51.2	0
52	3154	51.3	0
52	3154	51.4	0
52	3154	51.5	0
52	3154	51.6	0
52	3154	51.7	0
52	3154	51.8	0
52	3154	51.9	0
52	3154	52	0
52	3154	52.1	0
52	3154	52.2	0
52	3154	52.3	0
52	3154	52.4	0
52	3154	52.5	0
52	3154	52.6	0
52	3154	52.7	0
52	3154	52.8	0
52	3154	52.9	0
52	3154	53	0
52	3154	53.1	0
52	3154	53.2	0
52	3154	53.3	0
52	3154	53.4	0
52	3154	53.5	0
52	3154	53.6	0
52	3154	53.7	0
52	3154	53.8	0
52	3154	53.9	0
52	3154	54	0
52	3154	54.1	0
52	3154	54.2	0
52	3154	54.3	0
52	3154	54.4	0
52	3154	54.5	0
52	3154	54.6	0
52	3154	54.7	0
52	3154	54.8	0
52	3154	54.9	0
52	3154	55	0
52	3154	55.1	0
52	3154	55.2	0
52	3154	55.3	0
52	3154	55.4	0
52	3154	55.5	0
52	3154	55.6	0
52	3154	55.7	0
52	3154	55.8	0
52	3154	55.9	0
52	3154	56	0
52	3154	56.1	0
52	3154	56.2	0
52	3154	56.3	0
52	3154	56.4	0
52	3154	56.5	0
52	3154	56.6	0
52	3154	56.7	0
52	3154	56.8	0
52	3154	56.9	0
52	3154	57	0
52	3154	57.1	0
52	3154	57.2	0
52	3154	57.3	0
52	3154	57.4	0
52	3154	57.5	0
52	3154	57.6	0
52	3154	57.7	0
52	3154	57.8	0
52	3154	57.9	0
52	3154	58	0
52	3154	58.1	0
52	3154	58.2	0
52	3154	58.3	0
52	3154	58.4	0
52	3154	58.5	0
52	3154	58.6	0
52	3154	58.7	0
52	3154	58.8	0
52	3154	58.9	0
52	3154	59	0
52	3154	59.1	0
52	3154	59.2	0
52	3154	59.3	0
52	3154	59.4	0
52	3154	59.5	0
52	3154	59.6	0
52	3154	59.7	0
52	3154	59.8	0
52	3154	59.9	0
52	3154	60	0
52	3154	60.1	0
52	3154	60.2	0
52	3154	60.3	0
52	3154	60.4	0
52	3154	60.5	0
52	3154	60.6	0
52	3154	60.7	0
52	3154	60.8	0
52	3154	60.9	0
52	3154	61	0
52	3154	61.1	0
52	3154	61.2	0
52	3154	61.3	0
52	3154	61.4	0
52	3154	61.5	0
52	3154	61.6	0
52	3154	61.7	0
52	3154	61.8	0
52	3154	61.9	0
52	3154	62	0
52	3154	62.1	0
52	3154	62.2	0
52	3154	62.3	0
52	3154	62.4	0
52	3154	62.5	0
52	3154	62.6	0
52	3154	62.7	0
52	3154	62.8	0
52	3154	62.9	0
52	3154	63	0
52	3154	63.1	0
52	3154	63.2	0
52	3154	63.3	0
52	3154	63.4	0
52	3154	63.5	0
52	3154	63.6	0
52	3154	63.7	0
52	3154	63.8	0
52	3154	63.9	0
52	3154	64	0
52	3154	64.1	0
52	3154	64.2	0
52	3154	64.3	0
52	3154	64.4	0
52	3154	64.5	0
52	3154	64.6	0
52	3154	64.7	0
52	3154	64.8	0
52	3154	64.9	0
52	3154	65	0
52	3154	65.1	0
52	3154	65.2	0
52	3154	65.3	0
52	3154	65.4	0
52	3154	65.5	0
52	3154	65.6	0
52	3154	65.7	0
52	3154	65.8	0
52	3154	65.9	0
52	3154	66	0
52	3154	66.1	0
52	3154	66.2	0
52	3154	66.3	0
52	3154	66.4	0
52	3154	66.5	0
52	3154	66.6	0
52	3154	66.7	0
52	3154	66.8	0
52	3154	66.9	0
52	3154	67	0
52	3154	67.1	0
52	3154	67.2	0
52	3154	67.3	0
52	3154	67.4	0
52	3154	67.5	0
52	3154	67.6	0
52	3154	67.7	0
52	3154	67.8	0
52	3154	67.9	0
52	3154	68	0
52	3154	68.1	0
52	3154	68.2	0
52	3154	68.3	0
52	3154	68.4	0
52	3154	68.5	0
52	3154	68.6	0
52	3154	68.7	0
52	3154	68.8	0
52	3154	68.9	0
52	3154	69	0
52	3154	69.1	0
52	3154	69.2	0
52	3154	69.3	0
52	3154	69.4	0
52	3154	69.5	0
52	3154	69.6	0
52	3154	69.7	0
52	3154	69.8	0
52	3154	69.9	0
52	3154	70	0
52	3154	70.1	0
52	3154	70.2	0
52	3154	70.3	0
52	3154	70.4	0
52	3154	70.5	0
52	3154	70.6	0
52	3154	70.7	0
52	3154	70.8	0
52	3154	70.9	0
52	3154	71	0
52	3154	71.1	0
52	3154	71.2	0
52	3154	71.3	0
52	3154	71.4	0
52	3154	71.5	0
52	3154	71.6	0
52	3154	71.7	0
52	3154	71.8	0
52	3154	71.9	0
52	3154	72	0
52	3154	72.1	0
52	3154	72.2	0
52	3154	72.3	0
52	3154	72.4	0
52	3154	72.5	0
52	3154	72.6	0
52	3154	72.7	0
52	3154	72.8	0
52	3154	72.9	0
52	3154	73	0
52	3154	73.1	0
52	3154	73.2	0
52	3154	73.3	0
52	3154	73.4	0
52	3154	73.5	0
52	3154	73.6	0
52	3154	73.7	0
52	3154	73.8	0
52	3154	73.9	0
52	3154	74	0
52	3154	74.1	0
52	3154	74.2	0
52	3154	74.3	0
52	3154	74.4	0
52	3154	74.5	0
52	3154	74.6	0
52	3154	74.7	0
52	3154	74.8	0
52	3154	74.9	0
52	3154	75	0
52	3154	75.1	0
52	3154	75.2	0
52	3154	75.3	0
52	3154	75.4	0
52	3154	75.5	0
52	3154	75.6	0
52	3154	75.7	0
52	3154	75.8	0
52	3154	75.9	0
52	3154	76	0
52	3154	76.1	0
52	3154	76.2	0
52	3154	76.3	0
52	3154	76.4	0
52	3154	76.5	0
52	3154	76.6	0
52	3154	76.7	0
52	3154	76.8	0
52	3154	76.9	0
52	3154	77	0
52	3154	77.1	0
52	3154	77.2	0
52	3154	77.3	0
52	3154	77.4	0
52	3154	77.5	0
52	3154	77.6	0
52	3154	77.7	0