version 3
run EEPD-0-20241009-13:25:03-38528
attr configname EEPD
attr datetime 20241009-13:25:03
attr datetimef 20241009-132503
attr experiment EEPD
attr inifile omnetpp.ini
attr iterationvars ""
attr iterationvarsd ""
attr iterationvarsf ""
attr measurement ""
attr network ParcelDeliveryNetwork
attr processid 38528
attr repetition 0
attr replication #0
attr resultdir results
attr runnumber 0
attr seedset 0
config image-path ../inet4.5/images
config network ParcelDeliveryNetwork
config description "path planning considering energy consumption"
config *.numdrones 1
config **.drone*.mobility.typename DroneNetMob
config **.drone[*].mobility.ndst 30
config **.drone[*].mobility.nd 8
config **.drone[*].mobility.npar 30
config **.drone[*].mobility.initFromDisplayString false
config **.drone[*].mobility.changeInterval "truncnormal(2s, 0.5s)"
config **.drone[*].mobility.angleDelta "normal(0deg, 30deg)"
config **.drone[*].mobility.speed 10mps
config **.drone[*].mobility.remainingBattery 12800
config **.drone[*].mobility.weightCapacity 100
config **.drone[*].mobility.parcelSelectionMethod 4
config **.drone[*].mobility.initialX 0m
config **.drone[*].mobility.initialY 0m
config **.drone[*].mobility.initialZ 0m
config *.numdst 6
config **.dst*.mobility.typename StatNodeMob
config **.dst[0].mobility.initialX 200m
config **.dst[0].mobility.initialY 100m
config **.dst[0].mobility.initialZ 0m
config **.dst[1].mobility.initialX 100m
config **.dst[1].mobility.initialY 250m
config **.dst[1].mobility.initialZ 0m
config **.dst[2].mobility.initialX 260m
config **.dst[2].mobility.initialY 220m
config **.dst[2].mobility.initialZ 0m
config **.dst[3].mobility.initialX 200m
config **.dst[3].mobility.initialY 330m
config **.dst[3].mobility.initialZ 0m
config **.dst[4].mobility.initialX 400m
config **.dst[4].mobility.initialY 300m
config **.dst[4].mobility.initialZ 0m
config **.dst[5].mobility.initialX 400m
config **.dst[5].mobility.initialY 200m
config **.dst[5].mobility.initialZ 0m
config **.dst[*].mobility.initFromDisplayString false
config sim-time-limit 200second
config **.constraintAreaMinX 0m
config **.constraintAreaMinY 0m
config **.constraintAreaMinZ 0m
config **.constraintAreaMaxX 600m
config **.constraintAreaMaxY 400m
config **.constraintAreaMaxZ 0m
config **.updateInterval 0.2s

vector 0 ParcelDeliveryNetwork.drone[0].wlan[0].mac.dcf frameSequenceActive:vector ETV
attr autoWarmupFilter false
attr interpolationmode sample-hold
attr recordingmode vector
attr source warmup(count(frameSequenceStarted)-count(frameSequenceFinished))
attr title "frame sequence active"
vector 1 ParcelDeliveryNetwork.drone[0].wlan[0].mac.dcf.channelAccess.pendingQueue queueLength:vector ETV
attr autoWarmupFilter false
attr interpolationmode sample-hold
attr recordingmode vector
attr source "warmup(atomic(constant0(packetPushEnded) + count(packetPushStarted) - count(packetPulled) - count(packetRemoved) - count(packetDropped)))"
attr title "queue length"
attr unit pk
vector 2 ParcelDeliveryNetwork.drone[0].wlan[0].mac.dcf.channelAccess.pendingQueue queueBitLength:vector ETV
attr autoWarmupFilter false
attr interpolationmode sample-hold
attr recordingmode vector
attr source "warmup(atomic(constant0(packetPushEnded) + sum(packetLength(packetPushStarted)) - sum(packetLength(packetPulled)) - sum(packetLength(packetRemoved)) - sum(packetLength(packetDropped))))"
attr title "queue bit length"
attr unit b
vector 3 ParcelDeliveryNetwork.drone[0].wlan[0].mac.dcf.channelAccess.inProgressFrames queueLength:vector ETV
attr autoWarmupFilter false
attr interpolationmode sample-hold
attr recordingmode vector
attr source "warmup(count(packetEnqueued) - count(packetDequeued))"
attr title "queue length"
vector 4 ParcelDeliveryNetwork.drone[0].wlan[0].mac.dcf.channelAccess.contention backoffActive:vector ETV
attr autoWarmupFilter false
attr interpolationmode sample-hold
attr recordingmode vector
attr source warmup(count(backoffStarted)-count(backoffStopped))
attr title "backoff active"
vector 5 ParcelDeliveryNetwork.drone[0].udp passedUpPk:vector(count) ETV
attr interpolationmode none
attr recordingmode vector(count)
attr source packetSentToUpper
attr title "packets passed up, count"
vector 6 ParcelDeliveryNetwork.drone[0].udp droppedPkWrongPort:vector(count) ETV
attr interpolationmode none
attr recordingmode vector(count)
attr source packetDropReasonIsNoPortFound(packetDropped)
attr title "packets dropped (wrong port), count"
vector 7 ParcelDeliveryNetwork.drone[0].udp droppedPkBadChecksum:vector(count) ETV
attr interpolationmode none
attr recordingmode vector(count)
attr source packetDropReasonIsIncorrectlyReceived(packetDropped)
attr title "packets dropped (checksum error), count"
vector 8 ParcelDeliveryNetwork.gcs.wlan[0].mac.dcf frameSequenceActive:vector ETV
attr autoWarmupFilter false
attr interpolationmode sample-hold
attr recordingmode vector
attr source warmup(count(frameSequenceStarted)-count(frameSequenceFinished))
attr title "frame sequence active"
vector 9 ParcelDeliveryNetwork.gcs.wlan[0].mac.dcf.channelAccess.pendingQueue queueLength:vector ETV
attr autoWarmupFilter false
attr interpolationmode sample-hold
attr recordingmode vector
attr source "warmup(atomic(constant0(packetPushEnded) + count(packetPushStarted) - count(packetPulled) - count(packetRemoved) - count(packetDropped)))"
attr title "queue length"
attr unit pk
vector 10 ParcelDeliveryNetwork.gcs.wlan[0].mac.dcf.channelAccess.pendingQueue queueBitLength:vector ETV
attr autoWarmupFilter false
attr interpolationmode sample-hold
attr recordingmode vector
attr source "warmup(atomic(constant0(packetPushEnded) + sum(packetLength(packetPushStarted)) - sum(packetLength(packetPulled)) - sum(packetLength(packetRemoved)) - sum(packetLength(packetDropped))))"
attr title "queue bit length"
attr unit b
vector 11 ParcelDeliveryNetwork.gcs.wlan[0].mac.dcf.channelAccess.inProgressFrames queueLength:vector ETV
attr autoWarmupFilter false
attr interpolationmode sample-hold
attr recordingmode vector
attr source "warmup(count(packetEnqueued) - count(packetDequeued))"
attr title "queue length"
vector 12 ParcelDeliveryNetwork.gcs.wlan[0].mac.dcf.channelAccess.contention backoffActive:vector ETV
attr autoWarmupFilter false
attr interpolationmode sample-hold
attr recordingmode vector
attr source warmup(count(backoffStarted)-count(backoffStopped))
attr title "backoff active"
vector 13 ParcelDeliveryNetwork.gcs.udp passedUpPk:vector(count) ETV
attr interpolationmode none
attr recordingmode vector(count)
attr source packetSentToUpper
attr title "packets passed up, count"
vector 14 ParcelDeliveryNetwork.gcs.udp droppedPkWrongPort:vector(count) ETV
attr interpolationmode none
attr recordingmode vector(count)
attr source packetDropReasonIsNoPortFound(packetDropped)
attr title "packets dropped (wrong port), count"
vector 15 ParcelDeliveryNetwork.gcs.udp droppedPkBadChecksum:vector(count) ETV
attr interpolationmode none
attr recordingmode vector(count)
attr source packetDropReasonIsIncorrectlyReceived(packetDropped)
attr title "packets dropped (checksum error), count"
vector 16 ParcelDeliveryNetwork.drone[0].wlan[0].radio radioMode:vector ETV
attr interpolationmode sample-hold
attr recordingmode vector
attr source radioModeChanged
attr title "Radio mode"
vector 17 ParcelDeliveryNetwork.drone[0].wlan[0].radio radioChannel:vector ETV
attr interpolationmode sample-hold
attr recordingmode vector
attr source radioChannelChanged
attr title "Radio channel"
vector 18 ParcelDeliveryNetwork.gcs.wlan[0].radio radioMode:vector ETV
attr interpolationmode sample-hold
attr recordingmode vector
attr source radioModeChanged
attr title "Radio mode"
vector 19 ParcelDeliveryNetwork.gcs.wlan[0].radio radioChannel:vector ETV
attr interpolationmode sample-hold
attr recordingmode vector
attr source radioChannelChanged
attr title "Radio channel"
vector 20 ParcelDeliveryNetwork.drone[0].wlan[0].radio receptionState:vector ETV
attr interpolationmode sample-hold
attr recordingmode vector
attr source receptionStateChanged
attr title "Radio reception state"
vector 21 ParcelDeliveryNetwork.drone[0].wlan[0].mac.dcf.channelAccess.contention stateChanged:vector ETV
attr enum IDLE,DEFER,IFS_AND_BACKOFF
attr interpolationmode none
attr recordingmode vector
attr title "contention state changed"
attr type enum
vector 22 ParcelDeliveryNetwork.gcs.wlan[0].radio receptionState:vector ETV
attr interpolationmode sample-hold
attr recordingmode vector
attr source receptionStateChanged
attr title "Radio reception state"
vector 23 ParcelDeliveryNetwork.gcs.wlan[0].mac.dcf.channelAccess.contention stateChanged:vector ETV
attr enum IDLE,DEFER,IFS_AND_BACKOFF
attr interpolationmode none
attr recordingmode vector
attr title "contention state changed"
attr type enum
vector 24 ParcelDeliveryNetwork.drone[0].wlan[0].mac.dcf.recoveryProcedure contentionWindowChanged:vector ETV
attr interpolationmode sample-hold
attr recordingmode vector
attr title "contention window"
vector 25 ParcelDeliveryNetwork.gcs.wlan[0].mac.dcf.recoveryProcedure contentionWindowChanged:vector ETV
attr interpolationmode sample-hold
attr recordingmode vector
attr title "contention window"
vector 26 ParcelDeliveryNetwork.drone[0].wlan[0].mac.dcf.channelAccess.pendingQueue outgoingDataRate:vector ETV
attr interpolationmode linear
attr recordingmode vector
attr source throughput(packetPulled)
attr title "outgoing datarate"
attr unit bps
vector 27 ParcelDeliveryNetwork.drone[0].wlan[0].mac.dcf.channelAccess.pendingQueue incomingDataRate:vector ETV
attr interpolationmode linear
attr recordingmode vector
attr source throughput(packetPushStarted)
attr title "incoming datarate"
attr unit bps
vector 28 ParcelDeliveryNetwork.gcs.wlan[0].mac.dcf.channelAccess.pendingQueue outgoingDataRate:vector ETV
attr interpolationmode linear
attr recordingmode vector
attr source throughput(packetPulled)
attr title "outgoing datarate"
attr unit bps
vector 29 ParcelDeliveryNetwork.gcs.wlan[0].mac.dcf.channelAccess.pendingQueue incomingDataRate:vector ETV
attr interpolationmode linear
attr recordingmode vector
attr source throughput(packetPushStarted)
attr title "incoming datarate"
attr unit bps
0	0	0	0
0	0	0	0
1	0	0	0
1	0	0	0
1	0	0	0
1	0	0	0
1	0	0	0
2	0	0	0
2	0	0	0
2	0	0	0
2	0	0	0
2	0	0	0
3	0	0	0
3	0	0	0
4	0	0	0
4	0	0	0
5	0	0	0
6	0	0	0
7	0	0	0
8	0	0	0
8	0	0	0
9	0	0	0
9	0	0	0
9	0	0	0
9	0	0	0
9	0	0	0
10	0	0	0
10	0	0	0
10	0	0	0
10	0	0	0
10	0	0	0
11	0	0	0
11	0	0	0
12	0	0	0
12	0	0	0
13	0	0	0
14	0	0	0
15	0	0	0
16	0	0	0
16	0	0	0
16	0	0	2
17	0	0	0
18	0	0	0
18	0	0	0
18	0	0	2
19	0	0	0
20	0	0	1
21	0	0	0
21	0	0	0
22	0	0	1
23	0	0	0
23	0	0	0
24	0	0	31
25	0	0	31
26	1053	0.1	0
26	1053	0.2	0
26	1053	0.3	0
26	1053	0.4	0
26	1053	0.5	0
26	1053	0.6	0
26	1053	0.7	0
26	1053	0.8	0
26	1053	0.9	0
26	1053	1	0
26	1053	1.1	0
26	1053	1.2	0
26	1053	1.3	0
26	1053	1.4	0
26	1053	1.5	0
26	1053	1.6	0
26	1053	1.7	0
26	1053	1.8	0
26	1053	1.9	0
26	1053	2	0
26	1053	2.1	0
26	1053	2.2	0
26	1053	2.3	0
26	1053	2.4	0
26	1053	2.5	0
26	1053	2.6	0
26	1053	2.7	0
26	1053	2.8	0
26	1053	2.9	0
26	1053	3	0
26	1053	3.1	0
26	1053	3.2	0
26	1053	3.3	0
26	1053	3.4	0
26	1053	3.5	0
26	1053	3.6	0
26	1053	3.7	0
26	1053	3.8	0
26	1053	3.9	0
26	1053	4	0
26	1053	4.1	0
26	1053	4.2	0
26	1053	4.3	0
26	1053	4.4	0
26	1053	4.5	0
26	1053	4.6	0
26	1053	4.7	0
26	1053	4.8	0
26	1053	4.9	0
26	1053	5	0
26	1053	5.1	0
26	1053	5.2	0
26	1053	5.3	0
26	1053	5.4	0
26	1053	5.5	0
26	1053	5.6	0
26	1053	5.7	0
26	1053	5.8	0
26	1053	5.9	0
26	1053	6	0
26	1053	6.1	0
26	1053	6.2	0
26	1053	6.3	0
26	1053	6.4	0
26	1053	6.5	0
26	1053	6.6	0
26	1053	6.7	0
26	1053	6.8	0
26	1053	6.9	0
26	1053	7	0
26	1053	7.1	0
26	1053	7.2	0
26	1053	7.3	0
26	1053	7.4	0
26	1053	7.5	0
26	1053	7.6	0
26	1053	7.7	0
26	1053	7.8	0
26	1053	7.9	0
26	1053	8	0
26	1053	8.1	0
26	1053	8.2	0
26	1053	8.3	0
26	1053	8.4	0
26	1053	8.5	0
26	1053	8.6	0
26	1053	8.7	0
26	1053	8.8	0
26	1053	8.9	0
26	1053	9	0
26	1053	9.1	0
26	1053	9.2	0
26	1053	9.3	0
26	1053	9.4	0
26	1053	9.5	0
26	1053	9.6	0
26	1053	9.7	0
26	1053	9.8	0
26	1053	9.9	0
26	1053	10	0
26	1053	10.1	0
26	1053	10.2	0
26	1053	10.3	0
26	1053	10.4	0
26	1053	10.5	0
26	1053	10.6	0
26	1053	10.7	0
26	1053	10.8	0
26	1053	10.9	0
26	1053	11	0
26	1053	11.1	0
26	1053	11.2	0
26	1053	11.3	0
26	1053	11.4	0
26	1053	11.5	0
26	1053	11.6	0
26	1053	11.7	0
26	1053	11.8	0
26	1053	11.9	0
26	1053	12	0
26	1053	12.1	0
26	1053	12.2	0
26	1053	12.3	0
26	1053	12.4	0
26	1053	12.5	0
26	1053	12.6	0
26	1053	12.7	0
26	1053	12.8	0
26	1053	12.9	0
26	1053	13	0
26	1053	13.1	0
26	1053	13.2	0
26	1053	13.3	0
26	1053	13.4	0
26	1053	13.5	0
26	1053	13.6	0
26	1053	13.7	0
26	1053	13.8	0
26	1053	13.9	0
26	1053	14	0
26	1053	14.1	0
26	1053	14.2	0
26	1053	14.3	0
26	1053	14.4	0
26	1053	14.5	0
26	1053	14.6	0
26	1053	14.7	0
26	1053	14.8	0
26	1053	14.9	0
26	1053	15	0
26	1053	15.1	0
26	1053	15.2	0
26	1053	15.3	0
26	1053	15.4	0
26	1053	15.5	0
26	1053	15.6	0
26	1053	15.7	0
26	1053	15.8	0
26	1053	15.9	0
26	1053	16	0
26	1053	16.1	0
26	1053	16.2	0
26	1053	16.3	0
26	1053	16.4	0
26	1053	16.5	0
26	1053	16.6	0
26	1053	16.7	0
26	1053	16.8	0
26	1053	16.9	0
26	1053	17	0
26	1053	17.1	0
26	1053	17.2	0
26	1053	17.3	0
26	1053	17.4	0
26	1053	17.5	0
26	1053	17.6	0
26	1053	17.7	0
26	1053	17.8	0
26	1053	17.9	0
26	1053	18	0
26	1053	18.1	0
26	1053	18.2	0
26	1053	18.3	0
26	1053	18.4	0
26	1053	18.5	0
26	1053	18.6	0
26	1053	18.7	0
26	1053	18.8	0
26	1053	18.9	0
26	1053	19	0
26	1053	19.1	0
26	1053	19.2	0
26	1053	19.3	0
26	1053	19.4	0
26	1053	19.5	0
26	1053	19.6	0
26	1053	19.7	0
26	1053	19.8	0
26	1053	19.9	0
26	1053	20	0
26	1053	20.1	0
26	1053	20.2	0
26	1053	20.3	0
26	1053	20.4	0
26	1053	20.5	0
26	1053	20.6	0
26	1053	20.7	0
26	1053	20.8	0
26	1053	20.9	0
26	1053	21	0
26	1053	21.1	0
26	1053	21.2	0
26	1053	21.3	0
26	1053	21.4	0
26	1053	21.5	0
26	1053	21.6	0
26	1053	21.7	0
26	1053	21.8	0
26	1053	21.9	0
26	1053	22	0
26	1053	22.1	0
26	1053	22.2	0
26	1053	22.3	0
26	1053	22.4	0
26	1053	22.5	0
26	1053	22.6	0
26	1053	22.7	0
26	1053	22.8	0
26	1053	22.9	0
26	1053	23	0
26	1053	23.1	0
26	1053	23.2	0
26	1053	23.3	0
26	1053	23.4	0
26	1053	23.5	0
26	1053	23.6	0
26	1053	23.7	0
26	1053	23.8	0
26	1053	23.9	0
26	1053	24	0
26	1053	24.1	0
26	1053	24.2	0
26	1053	24.3	0
26	1053	24.4	0
26	1053	24.5	0
26	1053	24.6	0
26	1053	24.7	0
26	1053	24.8	0
26	1053	24.9	0
26	1053	25	0
26	1053	25.1	0
26	1053	25.2	0
26	1053	25.3	0
26	1053	25.4	0
26	1053	25.5	0
26	1053	25.6	0
26	1053	25.7	0
26	1053	25.8	0
26	1053	25.9	0
26	1053	26	0
26	1053	26.1	0
26	1053	26.2	0
26	1053	26.3	0
26	1053	26.4	0
26	1053	26.5	0
26	1053	26.6	0
26	1053	26.7	0
26	1053	26.8	0
26	1053	26.9	0
26	1053	27	0
26	1053	27.1	0
26	1053	27.2	0
26	1053	27.3	0
26	1053	27.4	0
26	1053	27.5	0
26	1053	27.6	0
26	1053	27.7	0
26	1053	27.8	0
26	1053	27.9	0
26	1053	28	0
26	1053	28.1	0
26	1053	28.2	0
26	1053	28.3	0
26	1053	28.4	0
26	1053	28.5	0
26	1053	28.6	0
26	1053	28.7	0
26	1053	28.8	0
26	1053	28.9	0
26	1053	29	0
26	1053	29.1	0
26	1053	29.2	0
26	1053	29.3	0
26	1053	29.4	0
26	1053	29.5	0
26	1053	29.6	0
26	1053	29.7	0
26	1053	29.8	0
26	1053	29.9	0
26	1053	30	0
26	1053	30.1	0
26	1053	30.2	0
26	1053	30.3	0
26	1053	30.4	0
26	1053	30.5	0
26	1053	30.6	0
26	1053	30.7	0
26	1053	30.8	0
26	1053	30.9	0
26	1053	31	0
26	1053	31.1	0
26	1053	31.2	0
26	1053	31.3	0
26	1053	31.4	0
26	1053	31.5	0
26	1053	31.6	0
26	1053	31.7	0
26	1053	31.8	0
26	1053	31.9	0
26	1053	32	0
26	1053	32.1	0
26	1053	32.2	0
26	1053	32.3	0
26	1053	32.4	0
26	1053	32.5	0
26	1053	32.6	0
26	1053	32.7	0
26	1053	32.8	0
26	1053	32.9	0
26	1053	33	0
26	1053	33.1	0
26	1053	33.2	0
26	1053	33.3	0
26	1053	33.4	0
26	1053	33.5	0
26	1053	33.6	0
26	1053	33.7	0
26	1053	33.8	0
26	1053	33.9	0
26	1053	34	0
26	1053	34.1	0
26	1053	34.2	0
26	1053	34.3	0
26	1053	34.4	0
26	1053	34.5	0
26	1053	34.6	0
26	1053	34.7	0
26	1053	34.8	0
26	1053	34.9	0
26	1053	35	0
26	1053	35.1	0
26	1053	35.2	0
26	1053	35.3	0
26	1053	35.4	0
26	1053	35.5	0
26	1053	35.6	0
26	1053	35.7	0
26	1053	35.8	0
26	1053	35.9	0
26	1053	36	0
26	1053	36.1	0
26	1053	36.2	0
26	1053	36.3	0
26	1053	36.4	0
26	1053	36.5	0
26	1053	36.6	0
26	1053	36.7	0
26	1053	36.8	0
26	1053	36.9	0
26	1053	37	0
26	1053	37.1	0
26	1053	37.2	0
26	1053	37.3	0
26	1053	37.4	0
26	1053	37.5	0
26	1053	37.6	0
26	1053	37.7	0
26	1053	37.8	0
26	1053	37.9	0
26	1053	38	0
26	1053	38.1	0
26	1053	38.2	0
26	1053	38.3	0
26	1053	38.4	0
26	1053	38.5	0
26	1053	38.6	0
26	1053	38.7	0
26	1053	38.8	0
26	1053	38.9	0
26	1053	39	0
26	1053	39.1	0
26	1053	39.2	0
26	1053	39.3	0
26	1053	39.4	0
26	1053	39.5	0
26	1053	39.6	0
26	1053	39.7	0
26	1053	39.8	0
26	1053	39.9	0
26	1053	40	0
26	1053	40.1	0
26	1053	40.2	0
26	1053	40.3	0
26	1053	40.4	0
26	1053	40.5	0
26	1053	40.6	0
26	1053	40.7	0
26	1053	40.8	0
26	1053	40.9	0
26	1053	41	0
26	1053	41.1	0
26	1053	41.2	0
26	1053	41.3	0
26	1053	41.4	0
26	1053	41.5	0
26	1053	41.6	0
26	1053	41.7	0
26	1053	41.8	0
26	1053	41.9	0
26	1053	42	0
26	1053	42.1	0
26	1053	42.2	0
26	1053	42.3	0
26	1053	42.4	0
26	1053	42.5	0
26	1053	42.6	0
26	1053	42.7	0
26	1053	42.8	0
26	1053	42.9	0
26	1053	43	0
26	1053	43.1	0
26	1053	43.2	0
26	1053	43.3	0
26	1053	43.4	0
26	1053	43.5	0
26	1053	43.6	0
26	1053	43.7	0
26	1053	43.8	0
26	1053	43.9	0
26	1053	44	0
26	1053	44.1	0
26	1053	44.2	0
26	1053	44.3	0
26	1053	44.4	0
26	1053	44.5	0
26	1053	44.6	0
26	1053	44.7	0
26	1053	44.8	0
26	1053	44.9	0
26	1053	45	0
26	1053	45.1	0
26	1053	45.2	0
26	1053	45.3	0
26	1053	45.4	0
26	1053	45.5	0
26	1053	45.6	0
26	1053	45.7	0
26	1053	45.8	0
26	1053	45.9	0
26	1053	46	0
26	1053	46.1	0
26	1053	46.2	0
26	1053	46.3	0
26	1053	46.4	0
26	1053	46.5	0
26	1053	46.6	0
26	1053	46.7	0
26	1053	46.8	0
26	1053	46.9	0
26	1053	47	0
26	1053	47.1	0
26	1053	47.2	0
26	1053	47.3	0
26	1053	47.4	0
26	1053	47.5	0
26	1053	47.6	0
26	1053	47.7	0
26	1053	47.8	0
26	1053	47.9	0
26	1053	48	0
26	1053	48.1	0
26	1053	48.2	0
26	1053	48.3	0
26	1053	48.4	0
26	1053	48.5	0
26	1053	48.6	0
26	1053	48.7	0
26	1053	48.8	0
26	1053	48.9	0
26	1053	49	0
26	1053	49.1	0
26	1053	49.2	0
26	1053	49.3	0
26	1053	49.4	0
26	1053	49.5	0
26	1053	49.6	0
26	1053	49.7	0
26	1053	49.8	0
26	1053	49.9	0
26	1053	50	0
26	1053	50.1	0
26	1053	50.2	0
26	1053	50.3	0
26	1053	50.4	0
26	1053	50.5	0
26	1053	50.6	0
26	1053	50.7	0
26	1053	50.8	0
26	1053	50.9	0
26	1053	51	0
26	1053	51.1	0
26	1053	51.2	0
26	1053	51.3	0
26	1053	51.4	0
26	1053	51.5	0
26	1053	51.6	0
26	1053	51.7	0
26	1053	51.8	0
26	1053	51.9	0
26	1053	52	0
26	1053	52.1	0
26	1053	52.2	0
26	1053	52.3	0
26	1053	52.4	0
26	1053	52.5	0
26	1053	52.6	0
26	1053	52.7	0
26	1053	52.8	0
26	1053	52.9	0
26	1053	53	0
26	1053	53.1	0
26	1053	53.2	0
26	1053	53.3	0
26	1053	53.4	0
26	1053	53.5	0
26	1053	53.6	0
26	1053	53.7	0
26	1053	53.8	0
26	1053	53.9	0
26	1053	54	0
26	1053	54.1	0
26	1053	54.2	0
26	1053	54.3	0
26	1053	54.4	0
26	1053	54.5	0
26	1053	54.6	0
26	1053	54.7	0
26	1053	54.8	0
26	1053	54.9	0
26	1053	55	0
26	1053	55.1	0
26	1053	55.2	0
26	1053	55.3	0
26	1053	55.4	0
26	1053	55.5	0
26	1053	55.6	0
26	1053	55.7	0
26	1053	55.8	0
26	1053	55.9	0
26	1053	56	0
26	1053	56.1	0
26	1053	56.2	0
26	1053	56.3	0
26	1053	56.4	0
26	1053	56.5	0
26	1053	56.6	0
26	1053	56.7	0
26	1053	56.8	0
26	1053	56.9	0
26	1053	57	0
26	1053	57.1	0
26	1053	57.2	0
26	1053	57.3	0
26	1053	57.4	0
26	1053	57.5	0
26	1053	57.6	0
26	1053	57.7	0
26	1053	57.8	0
26	1053	57.9	0
26	1053	58	0
26	1053	58.1	0
26	1053	58.2	0
26	1053	58.3	0
26	1053	58.4	0
26	1053	58.5	0
26	1053	58.6	0
26	1053	58.7	0
26	1053	58.8	0
26	1053	58.9	0
26	1053	59	0
26	1053	59.1	0
26	1053	59.2	0
26	1053	59.3	0
26	1053	59.4	0
26	1053	59.5	0
26	1053	59.6	0
26	1053	59.7	0
26	1053	59.8	0
26	1053	59.9	0
26	1053	60	0
26	1053	60.1	0
26	1053	60.2	0
26	1053	60.3	0
26	1053	60.4	0
26	1053	60.5	0
26	1053	60.6	0
26	1053	60.7	0
26	1053	60.8	0
26	1053	60.9	0
26	1053	61	0
26	1053	61.1	0
26	1053	61.2	0
26	1053	61.3	0
26	1053	61.4	0
26	1053	61.5	0
26	1053	61.6	0
26	1053	61.7	0
26	1053	61.8	0
26	1053	61.9	0
26	1053	62	0
26	1053	62.1	0
26	1053	62.2	0
26	1053	62.3	0
26	1053	62.4	0
26	1053	62.5	0
26	1053	62.6	0
26	1053	62.7	0
26	1053	62.8	0
26	1053	62.9	0
26	1053	63	0
26	1053	63.1	0
26	1053	63.2	0
26	1053	63.3	0
26	1053	63.4	0
26	1053	63.5	0
26	1053	63.6	0
26	1053	63.7	0
26	1053	63.8	0
26	1053	63.9	0
26	1053	64	0
26	1053	64.1	0
26	1053	64.2	0
26	1053	64.3	0
26	1053	64.4	0
26	1053	64.5	0
26	1053	64.6	0
26	1053	64.7	0
26	1053	64.8	0
26	1053	64.9	0
26	1053	65	0
26	1053	65.1	0
26	1053	65.2	0
26	1053	65.3	0
26	1053	65.4	0
26	1053	65.5	0
26	1053	65.6	0
26	1053	65.7	0
26	1053	65.8	0
26	1053	65.9	0
26	1053	66	0
26	1053	66.1	0
26	1053	66.2	0
26	1053	66.3	0
26	1053	66.4	0
26	1053	66.5	0
26	1053	66.6	0
26	1053	66.7	0
26	1053	66.8	0
26	1053	66.9	0
26	1053	67	0
26	1053	67.1	0
26	1053	67.2	0
26	1053	67.3	0
26	1053	67.4	0
26	1053	67.5	0
26	1053	67.6	0
26	1053	67.7	0
26	1053	67.8	0
26	1053	67.9	0
26	1053	68	0
26	1053	68.1	0
26	1053	68.2	0
26	1053	68.3	0
26	1053	68.4	0
26	1053	68.5	0
26	1053	68.6	0
26	1053	68.7	0
26	1053	68.8	0
26	1053	68.9	0
26	1053	69	0
26	1053	69.1	0
26	1053	69.2	0
26	1053	69.3	0
26	1053	69.4	0
26	1053	69.5	0
26	1053	69.6	0
26	1053	69.7	0
26	1053	69.8	0
26	1053	69.9	0
26	1053	70	0
26	1053	70.1	0
26	1053	70.2	0
26	1053	70.3	0
26	1053	70.4	0
26	1053	70.5	0
26	1053	70.6	0
26	1053	70.7	0
26	1053	70.8	0
26	1053	70.9	0
26	1053	71	0
26	1053	71.1	0
26	1053	71.2	0
26	1053	71.3	0
26	1053	71.4	0
26	1053	71.5	0
26	1053	71.6	0
26	1053	71.7	0
26	1053	71.8	0
26	1053	71.9	0
26	1053	72	0
26	1053	72.1	0
26	1053	72.2	0
26	1053	72.3	0
26	1053	72.4	0
26	1053	72.5	0
26	1053	72.6	0
26	1053	72.7	0
26	1053	72.8	0
26	1053	72.9	0
26	1053	73	0
26	1053	73.1	0
26	1053	73.2	0
26	1053	73.3	0
26	1053	73.4	0
26	1053	73.5	0
26	1053	73.6	0
26	1053	73.7	0
26	1053	73.8	0
26	1053	73.9	0
26	1053	74	0
26	1053	74.1	0
26	1053	74.2	0
26	1053	74.3	0
26	1053	74.4	0
26	1053	74.5	0
26	1053	74.6	0
26	1053	74.7	0
26	1053	74.8	0
26	1053	74.9	0
26	1053	75	0
26	1053	75.1	0
26	1053	75.2	0
26	1053	75.3	0
26	1053	75.4	0
26	1053	75.5	0
26	1053	75.6	0
26	1053	75.7	0
26	1053	75.8	0
26	1053	75.9	0
26	1053	76	0
26	1053	76.1	0
26	1053	76.2	0
26	1053	76.3	0
26	1053	76.4	0
26	1053	76.5	0
26	1053	76.6	0
26	1053	76.7	0
26	1053	76.8	0
26	1053	76.9	0
26	1053	77	0
26	1053	77.1	0
26	1053	77.2	0
26	1053	77.3	0
26	1053	77.4	0
26	1053	77.5	0
26	1053	77.6	0
26	1053	77.7	0
26	1053	77.8	0
26	1053	77.9	0
26	1053	78	0
26	1053	78.1	0
26	1053	78.2	0
26	1053	78.3	0
26	1053	78.4	0
26	1053	78.5	0
26	1053	78.6	0
26	1053	78.7	0
26	1053	78.8	0
26	1053	78.9	0
26	1053	79	0
26	1053	79.1	0
26	1053	79.2	0
26	1053	79.3	0
26	1053	79.4	0
26	1053	79.5	0
26	1053	79.6	0
26	1053	79.7	0
26	1053	79.8	0
26	1053	79.9	0
26	1053	80	0
26	1053	80.1	0
26	1053	80.2	0
26	1053	80.3	0
26	1053	80.4	0
26	1053	80.5	0
26	1053	80.6	0
26	1053	80.7	0
26	1053	80.8	0
26	1053	80.9	0
26	1053	81	0
26	1053	81.1	0
26	1053	81.2	0
26	1053	81.3	0
26	1053	81.4	0
26	1053	81.5	0
26	1053	81.6	0
26	1053	81.7	0
26	1053	81.8	0
26	1053	81.9	0
26	1053	82	0
26	1053	82.1	0
26	1053	82.2	0
26	1053	82.3	0
26	1053	82.4	0
26	1053	82.5	0
26	1053	82.6	0
26	1053	82.7	0
26	1053	82.8	0
26	1053	82.9	0
26	1053	83	0
26	1053	83.1	0
26	1053	83.2	0
26	1053	83.3	0
26	1053	83.4	0
26	1053	83.5	0
26	1053	83.6	0
26	1053	83.7	0
26	1053	83.8	0
26	1053	83.9	0
26	1053	84	0
26	1053	84.1	0
26	1053	84.2	0
26	1053	84.3	0
26	1053	84.4	0
26	1053	84.5	0
26	1053	84.6	0
26	1053	84.7	0
26	1053	84.8	0
26	1053	84.9	0
26	1053	85	0
26	1053	85.1	0
26	1053	85.2	0
26	1053	85.3	0
26	1053	85.4	0
26	1053	85.5	0
26	1053	85.6	0
26	1053	85.7	0
26	1053	85.8	0
26	1053	85.9	0
26	1053	86	0
26	1053	86.1	0
26	1053	86.2	0
26	1053	86.3	0
26	1053	86.4	0
26	1053	86.5	0
26	1053	86.6	0
26	1053	86.7	0
26	1053	86.8	0
26	1053	86.9	0
26	1053	87	0
26	1053	87.1	0
26	1053	87.2	0
26	1053	87.3	0
26	1053	87.4	0
26	1053	87.5	0
26	1053	87.6	0
26	1053	87.7	0
26	1053	87.8	0
26	1053	87.9	0
26	1053	88	0
26	1053	88.1	0
26	1053	88.2	0
26	1053	88.3	0
26	1053	88.4	0
26	1053	88.5	0
26	1053	88.6	0
26	1053	88.7	0
26	1053	88.8	0
26	1053	88.9	0
26	1053	89	0
26	1053	89.1	0
26	1053	89.2	0
26	1053	89.3	0
26	1053	89.4	0
26	1053	89.5	0
26	1053	89.6	0
26	1053	89.7	0
26	1053	89.8	0
26	1053	89.9	0
26	1053	90	0
26	1053	90.1	0
26	1053	90.2	0
26	1053	90.3	0
26	1053	90.4	0
26	1053	90.5	0
26	1053	90.6	0
26	1053	90.7	0
26	1053	90.8	0
26	1053	90.9	0
26	1053	91	0
26	1053	91.1	0
26	1053	91.2	0
26	1053	91.3	0
26	1053	91.4	0
26	1053	91.5	0
26	1053	91.6	0
26	1053	91.7	0
26	1053	91.8	0
26	1053	91.9	0
26	1053	92	0
26	1053	92.1	0
26	1053	92.2	0
26	1053	92.3	0
26	1053	92.4	0
26	1053	92.5	0
26	1053	92.6	0
26	1053	92.7	0
26	1053	92.8	0
26	1053	92.9	0
26	1053	93	0
26	1053	93.1	0
26	1053	93.2	0
26	1053	93.3	0
26	1053	93.4	0
26	1053	93.5	0
26	1053	93.6	0
26	1053	93.7	0
26	1053	93.8	0
26	1053	93.9	0
26	1053	94	0
26	1053	94.1	0
26	1053	94.2	0
26	1053	94.3	0
26	1053	94.4	0
26	1053	94.5	0
26	1053	94.6	0
26	1053	94.7	0
26	1053	94.8	0
26	1053	94.9	0
26	1053	95	0
26	1053	95.1	0
26	1053	95.2	0
26	1053	95.3	0
26	1053	95.4	0
26	1053	95.5	0
26	1053	95.6	0
26	1053	95.7	0
26	1053	95.8	0
26	1053	95.9	0
26	1053	96	0
26	1053	96.1	0
26	1053	96.2	0
26	1053	96.3	0
26	1053	96.4	0
26	1053	96.5	0
26	1053	96.6	0
26	1053	96.7	0
26	1053	96.8	0
26	1053	96.9	0
26	1053	97	0
26	1053	97.1	0
26	1053	97.2	0
26	1053	97.3	0
26	1053	97.4	0
26	1053	97.5	0
26	1053	97.6	0
26	1053	97.7	0
26	1053	97.8	0
26	1053	97.9	0
26	1053	98	0
26	1053	98.1	0
26	1053	98.2	0
26	1053	98.3	0
26	1053	98.4	0
26	1053	98.5	0
26	1053	98.6	0
26	1053	98.7	0
26	1053	98.8	0
26	1053	98.9	0
26	1053	99	0
26	1053	99.1	0
26	1053	99.2	0
26	1053	99.3	0
26	1053	99.4	0
26	1053	99.5	0
26	1053	99.6	0
26	1053	99.7	0
26	1053	99.8	0
26	1053	99.9	0
26	1053	100	0
26	1053	100.1	0
26	1053	100.2	0
26	1053	100.3	0
26	1053	100.4	0
26	1053	100.5	0
26	1053	100.6	0
26	1053	100.7	0
26	1053	100.8	0
26	1053	100.9	0
26	1053	101	0
26	1053	101.1	0
26	1053	101.2	0
26	1053	101.3	0
26	1053	101.4	0
26	1053	101.5	0
26	1053	101.6	0
26	1053	101.7	0
26	1053	101.8	0
26	1053	101.9	0
26	1053	102	0
26	1053	102.1	0
26	1053	102.2	0
26	1053	102.3	0
26	1053	102.4	0
26	1053	102.5	0
26	1053	102.6	0
26	1053	102.7	0
26	1053	102.8	0
26	1053	102.9	0
26	1053	103	0
26	1053	103.1	0
26	1053	103.2	0
26	1053	103.3	0
26	1053	103.4	0
26	1053	103.5	0
26	1053	103.6	0
26	1053	103.7	0
26	1053	103.8	0
26	1053	103.9	0
26	1053	104	0
26	1053	104.1	0
26	1053	104.2	0
26	1053	104.3	0
26	1053	104.4	0
26	1053	104.5	0
26	1053	104.6	0
26	1053	104.7	0
26	1053	104.8	0
26	1053	104.9	0
26	1053	105	0
26	1053	105.1	0
26	1053	105.2	0
26	1053	105.3	0
26	1053	105.4	0
26	1053	105.5	0
26	1053	105.6	0
26	1053	105.7	0
26	1053	105.8	0
26	1053	105.9	0
26	1053	106	0
26	1053	106.1	0
26	1053	106.2	0
26	1053	106.3	0
26	1053	106.4	0
26	1053	106.5	0
26	1053	106.6	0
26	1053	106.7	0
26	1053	106.8	0
26	1053	106.9	0
26	1053	107	0
26	1053	107.1	0
26	1053	107.2	0
26	1053	107.3	0
26	1053	107.4	0
26	1053	107.5	0
26	1053	107.6	0
26	1053	107.7	0
26	1053	107.8	0
26	1053	107.9	0
26	1053	108	0
26	1053	108.1	0
26	1053	108.2	0
26	1053	108.3	0
26	1053	108.4	0
26	1053	108.5	0
26	1053	108.6	0
26	1053	108.7	0
26	1053	108.8	0
26	1053	108.9	0
26	1053	109	0
26	1053	109.1	0
26	1053	109.2	0
26	1053	109.3	0
26	1053	109.4	0
26	1053	109.5	0
26	1053	109.6	0
26	1053	109.7	0
26	1053	109.8	0
26	1053	109.9	0
26	1053	110	0
26	1053	110.1	0
26	1053	110.2	0
26	1053	110.3	0
26	1053	110.4	0
26	1053	110.5	0
26	1053	110.6	0
26	1053	110.7	0
26	1053	110.8	0
26	1053	110.9	0
26	1053	111	0
26	1053	111.1	0
26	1053	111.2	0
26	1053	111.3	0
26	1053	111.4	0
26	1053	111.5	0
26	1053	111.6	0
26	1053	111.7	0
26	1053	111.8	0
26	1053	111.9	0
26	1053	112	0
26	1053	112.1	0
26	1053	112.2	0
26	1053	112.3	0
26	1053	112.4	0
26	1053	112.5	0
26	1053	112.6	0
26	1053	112.7	0
26	1053	112.8	0
26	1053	112.9	0
26	1053	113	0
26	1053	113.1	0
26	1053	113.2	0
26	1053	113.3	0
26	1053	113.4	0
26	1053	113.5	0
26	1053	113.6	0
26	1053	113.7	0
26	1053	113.8	0
26	1053	113.9	0
26	1053	114	0
26	1053	114.1	0
26	1053	114.2	0
26	1053	114.3	0
26	1053	114.4	0
26	1053	114.5	0
26	1053	114.6	0
26	1053	114.7	0
26	1053	114.8	0
26	1053	114.9	0
26	1053	115	0
26	1053	115.1	0
26	1053	115.2	0
26	1053	115.3	0
26	1053	115.4	0
26	1053	115.5	0
26	1053	115.6	0
26	1053	115.7	0
26	1053	115.8	0
26	1053	115.9	0
26	1053	116	0
26	1053	116.1	0
26	1053	116.2	0
26	1053	116.3	0
26	1053	116.4	0
26	1053	116.5	0
26	1053	116.6	0
26	1053	116.7	0
26	1053	116.8	0
26	1053	116.9	0
26	1053	117	0
26	1053	117.1	0
26	1053	117.2	0
26	1053	117.3	0
26	1053	117.4	0
26	1053	117.5	0
26	1053	117.6	0
26	1053	117.7	0
26	1053	117.8	0
26	1053	117.9	0
26	1053	118	0
26	1053	118.1	0
26	1053	118.2	0
26	1053	118.3	0
26	1053	118.4	0
26	1053	118.5	0
26	1053	118.6	0
26	1053	118.7	0
26	1053	118.8	0
26	1053	118.9	0
26	1053	119	0
26	1053	119.1	0
26	1053	119.2	0
26	1053	119.3	0
26	1053	119.4	0
26	1053	119.5	0
26	1053	119.6	0
26	1053	119.7	0
26	1053	119.8	0
26	1053	119.9	0
26	1053	120	0
26	1053	120.1	0
26	1053	120.2	0
26	1053	120.3	0
26	1053	120.4	0
26	1053	120.5	0
26	1053	120.6	0
26	1053	120.7	0
26	1053	120.8	0
26	1053	120.9	0
26	1053	121	0
26	1053	121.1	0
26	1053	121.2	0
26	1053	121.3	0
26	1053	121.4	0
26	1053	121.5	0
26	1053	121.6	0
26	1053	121.7	0
26	1053	121.8	0
26	1053	121.9	0
26	1053	122	0
26	1053	122.1	0
26	1053	122.2	0
26	1053	122.3	0
26	1053	122.4	0
26	1053	122.5	0
26	1053	122.6	0
26	1053	122.7	0
26	1053	122.8	0
26	1053	122.9	0
26	1053	123	0
26	1053	123.1	0
26	1053	123.2	0
26	1053	123.3	0
26	1053	123.4	0
26	1053	123.5	0
26	1053	123.6	0
26	1053	123.7	0
26	1053	123.8	0
26	1053	123.9	0
26	1053	124	0
26	1053	124.1	0
26	1053	124.2	0
26	1053	124.3	0
26	1053	124.4	0
26	1053	124.5	0
26	1053	124.6	0
26	1053	124.7	0
26	1053	124.8	0
26	1053	124.9	0
26	1053	125	0
26	1053	125.1	0
26	1053	125.2	0
26	1053	125.3	0
26	1053	125.4	0
26	1053	125.5	0
26	1053	125.6	0
26	1053	125.7	0
26	1053	125.8	0
26	1053	125.9	0
26	1053	126	0
26	1053	126.1	0
26	1053	126.2	0
26	1053	126.3	0
26	1053	126.4	0
26	1053	126.5	0
26	1053	126.6	0
26	1053	126.7	0
26	1053	126.8	0
26	1053	126.9	0
26	1053	127	0
26	1053	127.1	0
26	1053	127.2	0
26	1053	127.3	0
26	1053	127.4	0
26	1053	127.5	0
26	1053	127.6	0
26	1053	127.7	0
26	1053	127.8	0
26	1053	127.9	0
26	1053	128	0
26	1053	128.1	0
26	1053	128.2	0
26	1053	128.3	0
26	1053	128.4	0
26	1053	128.5	0
26	1053	128.6	0
26	1053	128.7	0
26	1053	128.8	0
26	1053	128.9	0
26	1053	129	0
26	1053	129.1	0
26	1053	129.2	0
26	1053	129.3	0
26	1053	129.4	0
26	1053	129.5	0