version 3
run EPD-0-20240420-10:08:40-283969
attr configname EPD
attr datetime 20240420-10:08:40
attr datetimef 20240420-100840
attr experiment EPD
attr inifile omnetpp.ini
attr iterationvars ""
attr iterationvarsd ""
attr iterationvarsf ""
attr measurement ""
attr network ParcelDeliveryNetwork
attr processid 283969
attr repetition 0
attr replication #0
attr resultdir results
attr runnumber 0
attr seedset 0
config image-path ../inet4.5/images
config network ParcelDeliveryNetwork
config description "1 drones, 10 destinations, 100 parcels, "
config *.numdrones 1
config **.drone*.mobility.typename DroneNetMob
config **.drone[*].mobility.ndst 10
config **.drone[*].mobility.nd 8
config **.drone[*].mobility.npar 100
config **.drone[*].mobility.initFromDisplayString false
config **.drone[*].mobility.changeInterval "truncnormal(2s, 0.5s)"
config **.drone[*].mobility.angleDelta "normal(0deg, 30deg)"
config **.drone[*].mobility.speed "truncnormal(15mps, 5mps)"
config **.drone[*].mobility.remainingBattery 480
config **.drone[*].mobility.weightCapacity 25
config **.drone[*].mobility.parcelSelecitionMethod 4
config **.drone[*].mobility.initialX 300m
config **.drone[*].mobility.initialY 200m
config **.drone[*].mobility.initialZ 0m
config sim-time-limit 10day
config **.constraintAreaMinX 0m
config **.constraintAreaMinY 0m
config **.constraintAreaMinZ 0m
config **.constraintAreaMaxX 600m
config **.constraintAreaMaxY 400m
config **.constraintAreaMaxZ 0m
config **.updateInterval 0.2s

vector 0 ParcelDeliveryNetwork.gcs.wlan[0].mac.dcf frameSequenceActive:vector ETV
attr autoWarmupFilter false
attr interpolationmode sample-hold
attr recordingmode vector
attr source warmup(count(frameSequenceStarted)-count(frameSequenceFinished))
attr title "frame sequence active"
vector 1 ParcelDeliveryNetwork.gcs.wlan[0].mac.dcf.channelAccess.inProgressFrames queueLength:vector ETV
attr autoWarmupFilter false
attr interpolationmode sample-hold
attr recordingmode vector
attr source "warmup(count(packetEnqueued) - count(packetDequeued))"
attr title "queue length"
vector 2 ParcelDeliveryNetwork.gcs.wlan[0].mac.dcf.channelAccess.contention backoffActive:vector ETV
attr autoWarmupFilter false
attr interpolationmode sample-hold
attr recordingmode vector
attr source warmup(count(backoffStarted)-count(backoffStopped))
attr title "backoff active"
vector 3 ParcelDeliveryNetwork.gcs.udp passedUpPk:vector(count) ETV
attr interpolationmode none
attr recordingmode vector(count)
attr source packetSentToUpper
attr title "packets passed up, count"
vector 4 ParcelDeliveryNetwork.gcs.udp droppedPkWrongPort:vector(count) ETV
attr interpolationmode none
attr recordingmode vector(count)
attr source packetDropReasonIsNoPortFound(packetDropped)
attr title "packets dropped (wrong port), count"
vector 5 ParcelDeliveryNetwork.gcs.udp droppedPkBadChecksum:vector(count) ETV
attr interpolationmode none
attr recordingmode vector(count)
attr source packetDropReasonIsIncorrectlyReceived(packetDropped)
attr title "packets dropped (checksum error), count"
vector 6 ParcelDeliveryNetwork.gcs.wlan[0].radio radioMode:vector ETV
attr interpolationmode sample-hold
attr recordingmode vector
attr source radioModeChanged
attr title "Radio mode"
vector 7 ParcelDeliveryNetwork.gcs.wlan[0].radio radioChannel:vector ETV
attr interpolationmode sample-hold
attr recordingmode vector
attr source radioChannelChanged
attr title "Radio channel"
vector 8 ParcelDeliveryNetwork.drone[0] coordX:vector ETV
attr interpolationmode linear
attr recordingmode vector
attr source xCoord(mobilityPos(mobilityStateChanged))
attr title "coord X"
vector 9 ParcelDeliveryNetwork.drone[0] coordY:vector ETV
attr interpolationmode linear
attr recordingmode vector
attr source yCoord(mobilityPos(mobilityStateChanged))
attr title "coord Y"
vector 10 ParcelDeliveryNetwork.drone[0] coordZ:vector ETV
attr interpolationmode linear
attr recordingmode vector
attr source zCoord(mobilityPos(mobilityStateChanged))
attr title "coord Z"
vector 11 ParcelDeliveryNetwork.gcs.wlan[0].radio receptionState:vector ETV
attr interpolationmode sample-hold
attr recordingmode vector
attr source receptionStateChanged
attr title "Radio reception state"
vector 12 ParcelDeliveryNetwork.gcs.wlan[0].mac.dcf.channelAccess.contention stateChanged:vector ETV
attr enum IDLE,DEFER,IFS_AND_BACKOFF
attr interpolationmode none
attr recordingmode vector
attr title "contention state changed"
attr type enum
vector 13 ParcelDeliveryNetwork.gcs.wlan[0].mac.dcf.recoveryProcedure contentionWindowChanged:vector ETV
attr interpolationmode sample-hold
attr recordingmode vector
attr title "contention window"
0	0	0	0
0	0	0	0
1	0	0	0
1	0	0	0
2	0	0	0
2	0	0	0
3	0	0	0
4	0	0	0
5	0	0	0
6	0	0	0
6	0	0	0
6	0	0	2
7	0	0	0
8	0	0	300
8	1	0.2	275.27083930639
8	2	0.4	250.54167861279
8	3	0.6	225.81251791918
8	4	0.8	201.08335722557
8	5	1	176.35419653197
8	6	1.2	151.62503583836
8	7	1.4	126.89587514475
8	8	1.6	102.16671445115
8	9	1.8	77.437553757538
8	10	2	52.708393063932
8	11	2.2	27.979232370325
8	12	2.4	3.2500716767179
8	13	2.426285337517	0
8	14	2.626285337517	44.540076456932
8	15	2.826285337517	89.080152913865
8	16	3.026285337517	133.6202293708
8	17	3.226285337517	178.16030582773
8	18	3.426285337517	222.70038228466
8	19	3.626285337517	267.24045874159
8	20	3.826285337517	311.78053519853
8	21	4.026285337517	356.32061165546
8	22	4.051787711093	362
8	23	4.251787711093	362
8	24	4.451787711093	362
8	25	4.651787711093	362
8	26	4.851787711093	362
8	27	5.051787711093	362
8	28	5.251787711093	362
8	29	5.451787711093	362
8	30	5.513208851793	362
8	31	5.713208851793	355.26875609056
8	32	5.913208851793	348.53751218112
8	33	6.113208851793	341.80626827167
8	34	6.313208851793	335.07502436223
8	35	6.513208851793	328.34378045279
8	36	6.713208851793	321.61253654335
8	37	6.913208851793	314.88129263391
8	38	7.113208851793	308.15004872447
8	39	7.313208851793	301.41880481502
8	40	7.355364650457	300
8	41	7.555364650457	279.92078356926
8	42	7.755364650457	259.84156713852
8	43	7.955364650457	239.76235070778
8	44	8.155364650457	219.68313427705
8	45	8.355364650457	199.60391784631
8	46	8.555364650457	179.52470141557
8	47	8.755364650457	159.44548498483
8	48	8.955364650457	139.36626855409
8	49	9.155364650457	119.28705212335
8	50	9.355364650457	99.207835692613
8	51	9.555364650457	79.128619261875
8	52	9.755364650457	59.049402831136
8	53	9.955364650457	38.970186400397
8	54	10.155364650457	18.890969969659
8	55	10.34352906449	0
8	56	10.54352906449	71.376579229353
8	57	10.74352906449	142.75315845871
8	58	10.94352906449	214.12973768806
8	59	11.14352906449	285.50631691741
8	60	11.34352906449	356.88289614676
8	61	11.54352906449	428.25947537612
8	62	11.74352906449	499.63605460547
8	63	11.856630437042	540
8	64	12.056630437042	543.936274725
8	65	12.256630437042	547.87254945001
8	66	12.456630437042	551.80882417501
8	67	12.656630437042	555.74509890002
8	68	12.856630437042	559.68137362502
8	69	13.056630437042	563.61764835003
8	70	13.256630437042	567.55392307503
8	71	13.456630437042	571.49019780004
8	72	13.656630437042	575.42647252504
8	73	13.856630437042	579.36274725005
8	74	14.056630437042	583.29902197505
8	75	14.193865676635	586
8	76	14.393865676635	544.88988926223
8	77	14.593865676635	503.77977852446
8	78	14.793865676635	462.66966778669
8	79	14.993865676635	421.55955704892
8	80	15.193865676635	380.44944631115
8	81	15.393865676635	339.33933557339
8	82	15.585250885127	300
8	83	15.785250885127	259.83048578956
8	84	15.985250885127	219.66097157912
8	85	16.185250885127	179.49145736868
8	86	16.385250885127	139.32194315824
8	87	16.585250885127	99.152428947804
8	88	16.785250885127	58.982914737364
8	89	16.985250885127	18.813400526925
8	90	17.078920927679	0
8	91	17.278920927679	18.107015811318
8	92	17.478920927679	36.214031622637
8	93	17.678920927679	54.321047433955
8	94	17.878920927679	72.428063245274
8	95	18.078920927679	90.535079056592
8	96	18.278920927679	108.64209486791
8	97	18.478920927679	126.74911067923
8	98	18.678920927679	144.85612649055
8	99	18.878920927679	162.96314230187
8	100	18.978737018771	172
8	101	19.178737018771	180.22414708721
8	102	19.378737018771	188.44829417443
8	103	19.578737018771	196.67244126164
8	104	19.778737018771	204.89658834886
8	105	19.978737018771	213.12073543607
8	106	20.178737018771	221.34488252329
8	107	20.378737018771	229.5690296105
8	108	20.578737018771	237.79317669771
8	109	20.778737018771	246.01732378493
8	110	20.851271621653	249
8	111	21.051271621653	254.28048996055
8	112	21.251271621653	259.56097992109
8	113	21.451271621653	264.84146988164
8	114	21.651271621653	270.12195984219
8	115	21.851271621653	275.40244980274
8	116	22.051271621653	280.68293976328
8	117	22.251271621653	285.96342972383
8	118	22.451271621653	291.24391968438
8	119	22.651271621653	296.52440964493
8	120	22.782910555958	300
8	121	22.982910555958	279.39086887938
8	122	23.182910555958	258.78173775876
8	123	23.382910555958	238.17260663814
8	124	23.582910555958	217.56347551752
8	125	23.782910555958	196.95434439689
8	126	23.982910555958	176.34521327627
8	127	24.182910555958	155.73608215565
8	128	24.382910555958	135.12695103503
8	129	24.582910555958	114.51781991441
8	130	24.782910555958	93.908688793789
8	131	24.982910555958	73.299557673167
8	132	25.182910555958	52.690426552546
8	133	25.382910555958	32.081295431925
8	134	25.582910555958	11.472164311304
8	135	25.694241443652	0
8	136	25.894241443652	13.150975752513
8	137	26.094241443652	26.301951505026
8	138	26.294241443652	39.45292725754
8	139	26.494241443652	52.603903010053
8	140	26.694241443652	65.754878762566
8	141	26.894241443652	78.905854515079
8	142	27.094241443652	92.056830267592
8	143	27.294241443652	105.20780602011
8	144	27.494241443652	118.35878177262
8	145	27.694241443652	131.50975752513
8	146	27.894241443652	144.66073327765
8	147	28.094241443652	157.81170903016
8	148	28.294241443652	170.96268478267
8	149	28.386056915461	177
8	150	28.586056915461	305.39201285055
8	151	28.786056915461	433.78402570109
8	152	28.986056915461	562.17603855164
8	153	29.018495010302	583
8	154	29.218495010302	558.19411459172
8	155	29.418495010302	533.38822918343
8	156	29.618495010302	508.58234377515
8	157	29.818495010302	483.77645836686
8	158	30.018495010302	458.97057295858
8	159	30.218495010302	434.1646875503
8	160	30.418495010302	409.35880214201
8	161	30.618495010302	384.55291673373
8	162	30.818495010302	359.74703132544
8	163	31.018495010302	334.94114591716
8	164	31.218495010302	310.13526050888
8	165	31.30021158959	300
8	166	31.50021158959	258.57219546633
8	167	31.70021158959	217.14439093267
8	168	31.90021158959	175.716586399
8	169	32.10021158959	134.28878186534
8	170	32.30021158959	92.860977331673
8	171	32.50021158959	51.433172798007
8	172	32.70021158959	10.005368264342
8	173	32.748514261561	0
8	174	32.948514261561	18.116952137599
8	175	33.148514261561	36.233904275199
8	176	33.348514261561	54.350856412798
8	177	33.548514261561	72.467808550397
8	178	33.748514261561	90.584760687996
8	179	33.948514261561	108.7017128256
8	180	34.148514261561	126.81866496319
8	181	34.348514261561	144.93561710079
8	182	34.548514261561	163.05256923839
8	183	34.702485312052	177
8	184	34.902485312052	229.67846561741
8	185	35.102485312052	282.35693123482
8	186	35.302485312052	335.03539685222
8	187	35.502485312052	387.71386246963
8	188	35.702485312052	440.39232808704
8	189	35.902485312052	493.07079370445
8	190	36.0806575718	540
8	191	36.2806575718	512.24612437938
8	192	36.4806575718	484.49224875875
8	193	36.6806575718	456.73837313813
8	194	36.8806575718	428.98449751751
8	195	37.0806575718	401.23062189688
8	196	37.2806575718	373.47674627626
8	197	37.4806575718	345.72287065563
8	198	37.6806575718	317.96899503501
8	199	37.810145757743	300
8	200	38.010145757743	270.94558852513
8	201	38.210145757743	241.89117705026
8	202	38.410145757743	212.83676557538
8	203	38.610145757743	183.78235410051
8	204	38.810145757743	154.72794262564
8	205	39.010145757743	125.67353115077
8	206	39.210145757743	96.619119675896
8	207	39.410145757743	67.564708201024
8	208	39.610145757743	38.510296726152
8	209	39.810145757743	9.4558852512795
8	210	39.875236632218	0
8	211	40.075236632218	38.935967869517
8	212	40.275236632218	77.871935739033
8	213	40.475236632218	116.80790360855
8	214	40.675236632218	155.74387147807
8	215	40.875236632218	194.67983934758
8	216	41.075236632218	233.6158072171
8	217	41.275236632218	272.55177508662
8	218	41.364861859832	290
8	219	41.564861859832	296.68941987167
8	220	41.764861859832	303.37883974335
8	221	41.964861859832	310.06825961502
8	222	42.164861859832	316.7576794867
8	223	42.364861859832	323.44709935837
8	224	42.564861859832	330.13651923005
8	225	42.764861859832	336.82593910172
8	226	42.964861859832	343.5153589734
8	227	43.164861859832	350.20477884507
8	228	43.364861859832	356.89419871675
8	229	43.517514896454	362
8	230	43.717514896454	355.5723841273
8	231	43.917514896454	349.1447682546
8	232	44.117514896454	342.71715238191
8	233	44.317514896454	336.28953650921
8	234	44.517514896454	329.86192063651
8	235	44.717514896454	323.43430476381
8	236	44.917514896454	317.00668889112
8	237	45.117514896454	310.57907301842
8	238	45.317514896454	304.15145714572
8	239	45.446690541917	300
8	240	45.646690541917	271.63296323076
8	241	45.846690541917	243.26592646153
8	242	46.046690541917	214.89888969229
8	243	46.246690541917	186.53185292305
8	244	46.446690541917	158.16481615382
8	245	46.646690541917	129.79777938458
8	246	46.846690541917	101.43074261534
8	247	47.046690541917	73.063705846107
8	248	47.246690541917	44.696669076871
8	249	47.446690541917	16.329632307634
8	250	47.561821582501	0
8	251	47.761821582501	29.648470323997
8	252	47.961821582501	59.296940647995
8	253	48.161821582501	88.945410971992
8	254	48.361821582501	118.59388129599
8	255	48.561821582501	148.24235161999
8	256	48.761821582501	177.89082194398
8	257	48.961821582501	207.53929226798
8	258	49.161821582501	237.18776259198
8	259	49.361821582501	266.83623291598
8	260	49.518077651235	290
8	261	49.718077651235	314.32880543571
8	262	49.918077651235	338.65761087143
8	263	50.118077651235	362.98641630714
8	264	50.318077651235	387.31522174285
8	265	50.518077651235	411.64402717856
8	266	50.718077651235	435.97283261428
8	267	50.918077651235	460.30163804999
8	268	51.118077651235	484.6304434857
8	269	51.318077651235	508.95924892142
8	270	51.518077651235	533.28805435713
8	271	51.718077651235	557.61685979284
8	272	51.918077651235	581.94566522855
8	273	51.926745029288	583
8	274	52.126745029288	556.29013414962
8	275	52.326745029288	529.58026829924
8	276	52.526745029288	502.87040244886
8	277	52.726745029288	476.16053659848
8	278	52.926745029288	449.4506707481
8	279	53.126745029288	422.74080489772
8	280	53.326745029288	396.03093904734
8	281	53.526745029288	369.32107319696
8	282	53.726745029288	342.61120734657
8	283	53.926745029288	315.90134149619
8	284	54.045812205329	300
8	285	54.245812205329	259.35420764616
8	286	54.445812205329	218.70841529232
8	287	54.645812205329	178.06262293847
8	288	54.845812205329	137.41683058463
8	289	55.045812205329	96.771038230789
8	290	55.245812205329	56.125245876946
8	291	55.445812205329	15.479453523104
8	292	55.521979762297	0
8	293	55.721979762297	56.543725084714
8	294	55.921979762297	113.08745016943
8	295	56.121979762297	169.63117525414
8	296	56.321979762297	226.17490033885
8	297	56.521979762297	282.71862542357
8	298	56.721979762297	339.26235050828
8	299	56.802404776594	362
8	300	57.002404776594	390.13306492326
8	301	57.202404776594	418.26612984653
8	302	57.402404776594	446.39919476979
8	303	57.602404776594	474.53225969306
8	304	57.802404776594	502.66532461632
8	305	58.002404776594	530.79838953959
8	306	58.202404776594	558.93145446285
8	307	58.402404776594	587.06451938612
8	308	58.444600538983	593
8	309	58.644600538983	568.96599570344
8	310	58.844600538983	544.93199140689
8	311	59.044600538983	520.89798711033
8	312	59.244600538983	496.86398281377
8	313	59.444600538983	472.82997851722
8	314	59.644600538983	448.79597422066
8	315	59.844600538983	424.76196992411
8	316	60.044600538983	400.72796562755
8	317	60.244600538983	376.69396133099
8	318	60.444600538983	352.65995703444
8	319	60.644600538983	328.62595273788
8	320	60.844600538983	304.59194844132
8	321	60.88281263535	300
8	322	61.08281263535	277.16628859878
8	323	61.28281263535	254.33257719757
8	324	61.48281263535	231.49886579635
8	325	61.68281263535	208.66515439513
8	326	61.88281263535	185.83144299391
8	327	62.08281263535	162.9977315927
8	328	62.28281263535	140.16402019148
8	329	62.48281263535	117.33030879026
8	330	62.68281263535	94.496597389044
8	331	62.88281263535	71.662885987827
8	332	63.08281263535	48.82917458661
8	333	63.28281263535	25.995463185393
8	334	63.48281263535	3.1617517841753
8	335	63.510506353017	0
8	336	63.710506353017	22.458824996469
8	337	63.910506353017	44.917649992937
8	338	64.110506353017	67.376474989406
8	339	64.310506353017	89.835299985875
8	340	64.510506353017	112.29412498234
8	341	64.710506353017	134.75294997881
8	342	64.910506353017	157.21177497528
8	343	65.086724165194	177
8	344	65.286724165194	186.59555531674
8	345	65.486724165194	196.19111063348
8	346	65.686724165194	205.78666595022
8	347	65.886724165194	215.38222126696
8	348	66.086724165194	224.97777658371
8	349	66.286724165194	234.57333190045
8	350	66.486724165194	244.16888721719
8	351	66.686724165194	253.76444253393
8	352	66.886724165194	263.35999785067
8	353	67.086724165194	272.95555316741
8	354	67.286724165194	282.55110848415
8	355	67.441981287267	290
8	356	67.641981287267	291.1210568525
8	357	67.841981287267	292.242113705
8	358	68.041981287267	293.36317055749
8	359	68.241981287267	294.48422740999
8	360	68.441981287267	295.60528426249
8	361	68.641981287267	296.72634111499
8	362	68.841981287267	297.84739796749
8	363	69.041981287267	298.96845481999
8	364	69.226012128828	300
8	365	69.426012128828	270.01697874652
8	366	69.626012128828	240.03395749304
8	367	69.826012128828	210.05093623957
8	368	70.026012128828	180.06791498609
8	369	70.226012128828	150.08489373261
8	370	70.426012128828	120.10187247913
8	371	70.626012128828	90.118851225657
8	372	70.826012128828	60.135829972179
8	373	71.026012128828	30.152808718701
8	374	71.226012128828	0.16978746522364
8	375	71.227144686243	0
8	376	71.427144686243	60.537257469804
8	377	71.627144686243	121.07451493961
8	378	71.827144686243	181.61177240941
8	379	72.027144686243	242.14902987922
8	380	72.227144686243	302.68628734902
8	381	72.427144686243	363.22354481882
8	382	72.627144686243	423.76080228863
8	383	72.827144686243	484.29805975843
8	384	73.011170004104	540
8	385	73.211170004104	543.26880145477
8	386	73.411170004104	546.53760290954
8	387	73.611170004104	549.80640436431
8	388	73.811170004104	553.07520581908
8	389	74.011170004104	556.34400727385
8	390	74.211170004104	559.61280872862
8	391	74.411170004104	562.88161018339
8	392	74.611170004104	566.15041163816
8	393	74.811170004104	569.41921309293
8	394	75.011170004104	572.6880145477
8	395	75.211170004104	575.95681600247
8	396	75.411170004104	579.22561745724
8	397	75.611170004104	582.49441891201
8	398	75.642103732872	583
8	399	75.842103732872	548.54789679446
8	400	76.042103732872	514.09579358892
8	401	76.242103732872	479.64369038337
8	402	76.442103732872	445.19158717783
8	403	76.642103732872	410.73948397229
8	404	76.842103732872	376.28738076675
8	405	77.042103732872	341.83527756121
8	406	77.242103732872	307.38317435566
8	407	77.284964247434	300
8	408	77.484964247434	282.57348260592
8	409	77.684964247434	265.14696521185
8	410	77.884964247434	247.72044781777
8	411	78.084964247434	230.29393042369
8	412	78.284964247434	212.86741302961
8	413	78.484964247434	195.44089563554
8	414	78.684964247434	178.01437824146
8	415	78.884964247434	160.58786084738
8	416	79.084964247434	143.16134345331
8	417	79.284964247434	125.73482605923
8	418	79.484964247434	108.30830866515
8	419	79.684964247434	90.881791271075
8	420	79.884964247434	73.455273876998
8	421	80.084964247434	56.028756482921
8	422	80.284964247434	38.602239088843
8	423	80.484964247434	21.175721694766
8	424	80.684964247434	3.7492043006892
8	425	80.72799297447	0
8	426	80.92799297447	60.888091952449
8	427	81.12799297447	121.7761839049
8	428	81.32799297447	182.66427585735
8	429	81.52799297447	243.55236780979
8	430	81.72799297447	304.44045976224
8	431	81.92799297447	365.32855171469
8	432	82.12799297447	426.21664366714
8	433	82.32799297447	487.10473561959
8	434	82.501738817653	540
8	435	82.701738817653	544.00619089199
8	436	82.901738817653	548.01238178398
8	437	83.101738817653	552.01857267597
8	438	83.301738817653	556.02476356796
8	439	83.501738817653	560.03095445995
8	440	83.701738817653	564.03714535194
8	441	83.901738817653	568.04333624393
8	442	84.101738817653	572.04952713591
8	443	84.301738817653	576.0557180279
8	444	84.501738817653	580.06190891989
8	445	84.701738817653	584.06809981188
8	446	84.798184555772	586
8	447	84.998184555772	544.14232819904
8	448	85.198184555772	502.28465639808
8	449	85.398184555772	460.42698459712
8	450	85.598184555772	418.56931279616
8	451	85.798184555772	376.7116409952
8	452	85.998184555772	334.85396919424
8	453	86.164720188045	300
8	454	86.364720188045	264.11139669793
8	455	86.564720188045	228.22279339585
8	456	86.764720188045	192.33419009378
8	457	86.964720188045	156.44558679171
8	458	87.164720188045	120.55698348963
8	459	87.364720188045	84.668380187561
8	460	87.564720188045	48.779776885488
8	461	87.764720188045	12.891173583415
8	462	87.836560117144	0
8	463	88.036560117144	67.63511553602
8	464	88.236560117144	135.27023107204
8	465	88.436560117144	202.90534660806
8	466	88.636560117144	270.54046214408
8	467	88.836560117144	338.1755776801
8	468	89.036560117144	405.81069321612
8	469	89.236560117144	473.44580875214
8	470	89.436560117144	541.08092428816
8	471	89.569387792105	586
8	472	89.769387792105	583.50741359762
8	473	89.969387792105	581.01482719524
8	474	90.169387792105	578.52224079286
8	475	90.369387792105	576.02965439048
8	476	90.569387792105	573.5370679881
8	477	90.769387792105	571.04448158572
8	478	90.969387792105	568.55189518334
8	479	91.169387792105	566.05930878096
8	480	91.369387792105	563.56672237858
8	481	91.414860428724	563
8	482	91.614860428724	535.1675464918
8	483	91.814860428724	507.33509298361
8	484	92.014860428724	479.50263947541
8	485	92.214860428724	451.67018596721
8	486	92.414860428724	423.83773245902
8	487	92.614860428724	396.00527895082
8	488	92.814860428724	368.17282544262
8	489	93.014860428724	340.34037193443
8	490	93.214860428724	312.50791842623
8	491	93.30474052803	300
8	492	93.50474052803	264.71674000383
8	493	93.70474052803	229.43348000767
8	494	93.90474052803	194.1502200115
8	495	94.10474052803	158.86696001533
8	496	94.30474052803	123.58370001917
8	497	94.50474052803	88.300440023002
8	498	94.70474052803	53.017180026836
8	499	94.90474052803	17.733920030669
8	500	95.005263665816	0
8	501	95.205263665816	21.517924613036
8	502	95.405263665816	43.035849226073
8	503	95.605263665816	64.553773839109
8	504	95.805263665816	86.071698452145
8	505	96.005263665816	107.58962306518
8	506	96.205263665816	129.10754767822
8	507	96.405263665816	150.62547229125
8	508	96.605263665816	172.14339690429
8	509	96.805263665816	193.66132151733
8	510	97.005263665816	215.17924613036
8	511	97.205263665816	236.6971707434
8	512	97.319613255545	249
8	513	97.519613255545	284.89630419892
8	514	97.719613255545	320.79260839785
8	515	97.919613255545	356.68891259677
8	516	98.119613255545	392.5852167957
8	517	98.319613255545	428.48152099462
8	518	98.519613255545	464.37782519355
8	519	98.719613255545	500.27412939247
8	520	98.919613255545	536.17043359139
8	521	99.069096981	563
8	522	99.269096981	545.01144414747
8	523	99.469096981	527.02288829495
8	524	99.669096981	509.03433244242
8	525	99.869096981	491.0457765899
8	526	100.069096981	473.05722073737
8	527	100.269096981	455.06866488485
8	528	100.469096981	437.08010903232
8	529	100.669096981	419.0915531798
8	530	100.869096981	401.10299732727
8	531	101.069096981	383.11444147475
8	532	101.269096981	365.12588562222
8	533	101.469096981	347.1373297697
8	534	101.669096981	329.14877391717
8	535	101.869096981	311.16021806465
8	536	101.993178293098	300
8	537	102.193178293098	267.35673603906
8	538	102.393178293098	234.71347207812
8	539	102.593178293098	202.07020811717
8	540	102.793178293098	169.42694415623
8	541	102.993178293098	136.78368019529
8	542	103.193178293098	104.14041623435
8	543	103.393178293098	71.497152273406
8	544	103.593178293098	38.853888312464
8	545	103.793178293098	6.2106243515224
8	546	103.831229784266	0
8	547	104.031229784266	26.111097014881
8	548	104.231229784266	52.222194029762
8	549	104.431229784266	78.333291044642
8	550	104.631229784266	104.44438805952
8	551	104.831229784266	130.5554850744
8	552	105.031229784266	156.66658208928
8	553	105.231229784266	182.77767910417
8	554	105.431229784266	208.88877611905
8	555	105.631229784266	234.99987313393
8	556	105.831229784266	261.11097014881
8	557	106.031229784266	287.22206716369
8	558	106.05250757918	290
8	559	106.25250757918	310.28553667562
8	560	106.45250757918	330.57107335124
8	561	106.65250757918	350.85661002686
8	562	106.85250757918	371.14214670249
8	563	107.05250757918	391.42768337811
8	564	107.25250757918	411.71322005373
8	565	107.45250757918	431.99875672935
8	566	107.65250757918	452.28429340497
8	567	107.85250757918	472.56983008059
8	568	108.05250757918	492.85536675622
8	569	108.25250757918	513.14090343184
8	570	108.45250757918	533.42644010746
8	571	108.65250757918	553.71197678308
8	572	108.85250757918	573.9975134587
8	573	109.039857678368	593
8	574	109.239857678368	552.26989791442
8	575	109.439857678368	511.53979582885
8	576	109.639857678368	470.80969374327
8	577	109.839857678368	430.07959165769
8	578	110.039857678368	389.34948957212
8	579	110.239857678368	348.61938748654
8	580	110.439857678368	307.88928540097
8	581	110.478597013636	300
8	582	110.678597013636	281.7535013556
8	583	110.878597013636	263.5070027112
8	584	111.078597013636	245.26050406679
8	585	111.278597013636	227.01400542239
8	586	111.478597013636	208.76750677799
8	587	111.678597013636	190.52100813359
8	588	111.878597013636	172.27450948918
8	589	112.078597013636	154.02801084478
8	590	112.278597013636	135.78151220038
8	591	112.478597013636	117.53501355598
8	592	112.678597013636	99.288514911573
8	593	112.878597013636	81.042016267171
8	594	113.078597013636	62.795517622768
8	595	113.278597013636	44.549018978366
8	596	113.478597013636	26.302520333963
8	597	113.678597013636	8.0560216895609
8	598	113.766899124047	0
8	599	113.966899124047	41.444895548205
8	600	114.166899124047	82.88979109641
8	601	114.366899124047	124.33468664462
8	602	114.566899124047	165.77958219282
8	603	114.766899124047	207.22447774103
8	604	114.966899124047	248.66937328923
8	605	115.166899124047	290.11426883744
8	606	115.366899124047	331.55916438564
8	607	115.566899124047	373.00405993385
8	608	115.766899124047	414.44895548205
8	609	115.966899124047	455.89385103026
8	610	116.166899124047	497.33874657846
8	611	116.366899124047	538.78364212667
8	612	116.566899124047	580.22853767487
8	613	116.580273327497	583
8	614	116.780273327497	583.32119968897
8	615	116.980273327497	583.64239937794
8	616	117.180273327497	583.96359906691
8	617	117.380273327497	584.28479875588
8	618	117.580273327497	584.60599844485
8	619	117.780273327497	584.92719813382
8	620	117.980273327497	585.24839782279
8	621	118.180273327497	585.56959751176
8	622	118.380273327497	585.89079720073
8	623	118.448270155028	586
8	624	118.648270155028	562.20962693302
8	625	118.848270155028	538.41925386604
8	626	119.048270155028	514.62888079906
8	627	119.248270155028	490.83850773209
8	628	119.448270155028	467.04813466511
8	629	119.648270155028	443.25776159813
8	630	119.848270155028	419.46738853115
8	631	120.048270155028	395.67701546417
8	632	120.248270155028	371.88664239719
8	633	120.448270155028	348.09626933022
8	634	120.648270155028	324.30589626324
8	635	120.848270155028	300.51552319626
8	636	120.852604035752	300
8	637	121.052604035752	267.38046966614
8	638	121.252604035752	234.76093933228
8	639	121.452604035752	202.14140899843
8	640	121.652604035752	169.52187866457
8	641	121.852604035752	136.90234833071
8	642	122.052604035752	104.28281799685
8	643	122.252604035752	71.663287662993
8	644	122.452604035752	39.043757329135
8	645	122.652604035752	6.4242269952764
8	646	122.691992873847	0
8	647	122.891992873847	30.438265487756
8	648	123.091992873847	60.876530975513
8	649	123.291992873847	91.314796463269
8	650	123.491992873847	121.75306195103
8	651	123.691992873847	152.19132743878
8	652	123.891992873847	182.62959292654
8	653	124.091992873847	213.06785841429
8	654	124.291992873847	243.50612390205
8	655	124.491992873847	273.94438938981
8	656	124.597489099423	290
8	657	124.797489099423	286.46516872124
8	658	124.997489099423	282.93033744248
8	659	125.197489099423	279.39550616372
8	660	125.397489099423	275.86067488495
8	661	125.597489099423	272.32584360619
8	662	125.797489099423	268.79101232743
8	663	125.997489099423	265.25618104867
8	664	126.197489099423	261.72134976991
8	665	126.397489099423	258.18651849115
8	666	126.597489099423	254.65168721238
8	667	126.797489099423	251.11685593362
8	668	126.917260356758	249
8	669	127.117260356758	253.16260199246
8	670	127.317260356758	257.32520398493
8	671	127.517260356758	261.48780597739
8	672	127.717260356758	265.65040796986
8	673	127.917260356758	269.81300996232
8	674	128.117260356758	273.97561195478
8	675	128.317260356758	278.13821394725
8	676	128.517260356758	282.30081593971
8	677	128.717260356758	286.46341793218
8	678	128.917260356758	290.62601992464
8	679	129.117260356758	294.7886219171
8	680	129.317260356758	298.95122390957
8	681	129.367650766042	300
8	682	129.567650766042	270.55474931506
8	683	129.767650766042	241.10949863011
8	684	129.967650766042	211.66424794517
8	685	130.167650766042	182.21899726022
8	686	130.367650766042	152.77374657528
8	687	130.567650766042	123.32849589033
8	688	130.767650766042	93.883245205387
8	689	130.967650766042	64.437994520442
8	690	131.167650766042	34.992743835497
8	691	131.367650766042	5.5474931505522
8	692	131.405330819847	0
8	693	131.605330819847	14.168653291151
8	694	131.805330819847	28.337306582303
8	695	132.005330819847	42.505959873454