version 3
run RSPF-0-20240418-22:03:48-271560
attr configname RSPF
attr datetime 20240418-22:03:48
attr datetimef 20240418-220348
attr experiment RSPF
attr inifile omnetpp.ini
attr iterationvars ""
attr iterationvarsd ""
attr iterationvarsf ""
attr measurement ""
attr network ParcelDeliveryNetwork
attr processid 271560
attr repetition 0
attr replication #0
attr resultdir results
attr runnumber 0
attr seedset 0
config image-path ../inet4.5/images
config network ParcelDeliveryNetwork
config description "1 drones, 10 destinations, 100 parcels, "
config *.numdrones 1
config **.drone*.mobility.typename DroneNetMob
config **.drone[*].mobility.ndst 10
config **.drone[*].mobility.nd 8
config **.drone[*].mobility.npar 100
config **.drone[*].mobility.initFromDisplayString false
config **.drone[*].mobility.changeInterval "truncnormal(2s, 0.5s)"
config **.drone[*].mobility.angleDelta "normal(0deg, 30deg)"
config **.drone[*].mobility.speed 10mps
config **.drone[*].mobility.remainingBattery 480
config *.drone[*].mobility.weightCapacity 100
config **.drone[*].mobility.parcelSelectionMethod 0
config **.drone[*].mobility.initialX 0m
config **.drone[*].mobility.initialY 0m
config **.drone[*].mobility.initialZ 0m
config sim-time-limit 10day
config **.constraintAreaMinX 0m
config **.constraintAreaMinY 0m
config **.constraintAreaMinZ 0m
config **.constraintAreaMaxX 600m
config **.constraintAreaMaxY 400m
config **.constraintAreaMaxZ 0m
config **.updateInterval 0.2s

vector 0 ParcelDeliveryNetwork.gcs.wlan[0].mac.dcf frameSequenceActive:vector ETV
attr autoWarmupFilter false
attr interpolationmode sample-hold
attr recordingmode vector
attr source warmup(count(frameSequenceStarted)-count(frameSequenceFinished))
attr title "frame sequence active"
vector 1 ParcelDeliveryNetwork.gcs.wlan[0].mac.dcf.channelAccess.inProgressFrames queueLength:vector ETV
attr autoWarmupFilter false
attr interpolationmode sample-hold
attr recordingmode vector
attr source "warmup(count(packetEnqueued) - count(packetDequeued))"
attr title "queue length"
vector 2 ParcelDeliveryNetwork.gcs.wlan[0].mac.dcf.channelAccess.contention backoffActive:vector ETV
attr autoWarmupFilter false
attr interpolationmode sample-hold
attr recordingmode vector
attr source warmup(count(backoffStarted)-count(backoffStopped))
attr title "backoff active"
vector 3 ParcelDeliveryNetwork.gcs.udp passedUpPk:vector(count) ETV
attr interpolationmode none
attr recordingmode vector(count)
attr source packetSentToUpper
attr title "packets passed up, count"
vector 4 ParcelDeliveryNetwork.gcs.udp droppedPkWrongPort:vector(count) ETV
attr interpolationmode none
attr recordingmode vector(count)
attr source packetDropReasonIsNoPortFound(packetDropped)
attr title "packets dropped (wrong port), count"
vector 5 ParcelDeliveryNetwork.gcs.udp droppedPkBadChecksum:vector(count) ETV
attr interpolationmode none
attr recordingmode vector(count)
attr source packetDropReasonIsIncorrectlyReceived(packetDropped)
attr title "packets dropped (checksum error), count"
vector 6 ParcelDeliveryNetwork.gcs.wlan[0].radio radioMode:vector ETV
attr interpolationmode sample-hold
attr recordingmode vector
attr source radioModeChanged
attr title "Radio mode"
vector 7 ParcelDeliveryNetwork.gcs.wlan[0].radio radioChannel:vector ETV
attr interpolationmode sample-hold
attr recordingmode vector
attr source radioChannelChanged
attr title "Radio channel"
vector 8 ParcelDeliveryNetwork.drone[0] coordX:vector ETV
attr interpolationmode linear
attr recordingmode vector
attr source xCoord(mobilityPos(mobilityStateChanged))
attr title "coord X"
vector 9 ParcelDeliveryNetwork.drone[0] coordY:vector ETV
attr interpolationmode linear
attr recordingmode vector
attr source yCoord(mobilityPos(mobilityStateChanged))
attr title "coord Y"
vector 10 ParcelDeliveryNetwork.drone[0] coordZ:vector ETV
attr interpolationmode linear
attr recordingmode vector
attr source zCoord(mobilityPos(mobilityStateChanged))
attr title "coord Z"
vector 11 ParcelDeliveryNetwork.gcs.wlan[0].radio receptionState:vector ETV
attr interpolationmode sample-hold
attr recordingmode vector
attr source receptionStateChanged
attr title "Radio reception state"
vector 12 ParcelDeliveryNetwork.gcs.wlan[0].mac.dcf.channelAccess.contention stateChanged:vector ETV
attr enum IDLE,DEFER,IFS_AND_BACKOFF
attr interpolationmode none
attr recordingmode vector
attr title "contention state changed"
attr type enum
vector 13 ParcelDeliveryNetwork.gcs.wlan[0].mac.dcf.recoveryProcedure contentionWindowChanged:vector ETV
attr interpolationmode sample-hold
attr recordingmode vector
attr title "contention window"
0	0	0	0
0	0	0	0
1	0	0	0
1	0	0	0
2	0	0	0
2	0	0	0
3	0	0	0
4	0	0	0
5	0	0	0
6	0	0	0
6	0	0	0
6	0	0	2
7	0	0	0
8	0	0	0
8	1	0.2	0
8	2	0.4	0
8	3	0.6	0
8	4	0.8	0
8	5	1	0
8	6	1.2	0
8	7	1.4	0
8	8	1.6	0
8	9	1.8	0
8	10	2	0
8	11	2.2	0
8	12	2.4	0
8	13	2.426285337517	0
8	14	2.626285337517	15.000360042614
8	15	2.826285337517	30.000720085229
8	16	3.026285337517	45.001080127843
8	17	3.226285337517	60.001440170457
8	18	3.426285337517	75.001800213071
8	19	3.626285337517	90.002160255686
8	20	3.826285337517	105.0025202983
8	21	4.026285337517	120.00288034091
8	22	4.226285337517	135.00324038353
8	23	4.426285337517	150.00360042614
8	24	4.626285337517	165.00396046876
8	25	4.786228692172	177
8	26	4.986228692172	177
8	27	5.186228692172	177
8	28	5.386228692172	177
8	29	5.586228692172	177
8	30	5.786228692172	177
8	31	5.986228692172	177
8	32	6.186228692172	177
8	33	6.386228692172	177
8	34	6.411731065748	177
8	35	6.611731065748	177
8	36	6.811731065748	177
8	37	7.011731065748	177
8	38	7.211731065748	177
8	39	7.411731065748	177
8	40	7.611731065748	177
8	41	7.811731065748	177
8	42	7.873152206448	177
8	43	8.073152206448	177
8	44	8.273152206448	177
8	45	8.473152206448	177
8	46	8.673152206448	177
8	47	8.873152206448	177
8	48	9.073152206448	177
8	49	9.273152206448	177
8	50	9.473152206448	177
8	51	9.673152206448	177
8	52	9.715308005112	177
8	53	9.915308005112	177
8	54	10.115308005112	177
8	55	10.315308005112	177
8	56	10.515308005112	177
8	57	10.715308005112	177
8	58	10.915308005112	177
8	59	11.115308005112	177
8	60	11.315308005112	177
8	61	11.515308005112	177
8	62	11.715308005112	177
8	63	11.915308005112	177
8	64	12.115308005112	177
8	65	12.315308005112	177
8	66	12.515308005112	177
8	67	12.703472419145	177
8	68	12.903472419145	177
8	69	13.103472419145	177
8	70	13.303472419145	177
8	71	13.503472419145	177
8	72	13.703472419145	177
8	73	13.903472419145	177
8	74	14.103472419145	177
8	75	14.303472419145	177
8	76	14.503472419145	177
8	77	14.520821449784	177
8	78	14.720821449784	176.33910574788
8	79	14.920821449784	175.67821149575
8	80	15.120821449784	175.01731724363
8	81	15.320821449784	174.35642299151
8	82	15.520821449784	173.69552873938
8	83	15.720821449784	173.03463448726
8	84	15.920821449784	172.37374023513
8	85	16.033922822336	172
8	86	16.233922822336	172
8	87	16.433922822336	172
8	88	16.633922822336	172
8	89	16.833922822336	172
8	90	17.033922822336	172
8	91	17.233922822336	172
8	92	17.433922822336	172
8	93	17.633922822336	172
8	94	17.833922822336	172
8	95	18.033922822336	172
8	96	18.233922822336	172
8	97	18.371158061929	172
8	98	18.571158061929	172
8	99	18.771158061929	172
8	100	18.971158061929	172
8	101	19.171158061929	172
8	102	19.371158061929	172
8	103	19.571158061929	172
8	104	19.762543270421	172
8	105	19.962543270421	172
8	106	20.162543270421	172
8	107	20.362543270421	172
8	108	20.562543270421	172
8	109	20.762543270421	172
8	110	20.962543270421	172
8	111	21.162543270421	172
8	112	21.256213312973	172
8	113	21.456213312973	158.70191179707
8	114	21.656213312973	145.40382359414
8	115	21.856213312973	132.10573539121
8	116	22.056213312973	118.80764718828
8	117	22.256213312973	105.50955898535
8	118	22.456213312973	92.211470782423
8	119	22.656213312973	78.913382579494
8	120	22.856213312973	65.615294376564
8	121	23.056213312973	52.317206173635
8	122	23.256213312973	39.019117970705
8	123	23.456213312973	25.721029767776
8	124	23.656213312973	12.422941564846
8	125	23.843051321193	0
8	126	24.043051321193	0
8	127	24.243051321193	0
8	128	24.443051321193	0
8	129	24.643051321193	0
8	130	24.843051321193	0
8	131	25.043051321193	0
8	132	25.243051321193	0
8	133	25.443051321193	0
8	134	25.643051321193	0
8	135	25.742867412285	0
8	136	25.942867412285	18.90485759009
8	137	26.142867412285	37.80971518018
8	138	26.342867412285	56.71457277027
8	139	26.542867412285	75.61943036036
8	140	26.742867412285	94.52428795045
8	141	26.942867412285	113.42914554054
8	142	27.142867412285	132.33400313063
8	143	27.342867412285	151.23886072072
8	144	27.542867412285	170.14371831081
8	145	27.615402015167	177
8	146	27.815402015167	177
8	147	28.015402015167	177
8	148	28.215402015167	177
8	149	28.415402015167	177
8	150	28.615402015167	177
8	151	28.815402015167	177
8	152	29.015402015167	177
8	153	29.215402015167	177
8	154	29.415402015167	177
8	155	29.547040949472	177
8	156	29.747040949472	177
8	157	29.947040949472	177
8	158	30.147040949472	177
8	159	30.347040949472	177
8	160	30.547040949472	177
8	161	30.747040949472	177
8	162	30.947040949472	177
8	163	31.147040949472	177
8	164	31.347040949472	177
8	165	31.547040949472	177
8	166	31.747040949472	177
8	167	31.947040949472	177
8	168	32.147040949472	177
8	169	32.347040949472	177
8	170	32.458371837166	177
8	171	32.658371837166	177
8	172	32.858371837166	177
8	173	33.058371837166	177
8	174	33.258371837166	177
8	175	33.458371837166	177
8	176	33.658371837166	177
8	177	33.858371837166	177
8	178	34.058371837166	177
8	179	34.258371837166	177
8	180	34.458371837166	177
8	181	34.658371837166	177
8	182	34.858371837166	177
8	183	35.009985664886	177
8	184	35.209985664886	176.62850350982
8	185	35.409985664886	176.25700701963
8	186	35.609985664886	175.88551052945
8	187	35.809985664886	175.51401403926
8	188	36.009985664886	175.14251754908
8	189	36.209985664886	174.7710210589
8	190	36.409985664886	174.39952456871
8	191	36.609985664886	174.02802807853
8	192	36.809985664886	173.65653158834
8	193	37.009985664886	173.28503509816
8	194	37.209985664886	172.91353860798
8	195	37.409985664886	172.54204211779
8	196	37.609985664886	172.17054562761
8	197	37.701801136695	172
8	198	37.901801136695	172
8	199	38.101801136695	172
8	200	38.301801136695	172
8	201	38.334239231536	172
8	202	38.534239231536	172
8	203	38.734239231536	172
8	204	38.934239231536	172
8	205	39.134239231536	172
8	206	39.334239231536	172
8	207	39.534239231536	172
8	208	39.734239231536	172
8	209	39.934239231536	172
8	210	40.134239231536	172
8	211	40.334239231536	172
8	212	40.534239231536	172
8	213	40.615955810824	172
8	214	40.815955810824	172
8	215	41.015955810824	172
8	216	41.215955810824	172
8	217	41.415955810824	172
8	218	41.615955810824	172
8	219	41.815955810824	172
8	220	42.015955810824	172
8	221	42.064258482795	172
8	222	42.264258482795	172
8	223	42.464258482795	172
8	224	42.664258482795	172
8	225	42.864258482795	172
8	226	43.064258482795	172
8	227	43.264258482795	172
8	228	43.464258482795	172
8	229	43.664258482795	172
8	230	43.687958169172	172
8	231	43.887958169172	172
8	232	44.087958169172	172
8	233	44.287958169172	172
8	234	44.487958169172	172
8	235	44.687958169172	172
8	236	44.887958169172	172
8	237	45.087958169172	172
8	238	45.287958169172	172
8	239	45.487958169172	172
8	240	45.641929219663	172
8	241	45.841929219663	172
8	242	46.041929219663	172
8	243	46.241929219663	172
8	244	46.441929219663	172
8	245	46.641929219663	172
8	246	46.841929219663	172
8	247	47.020101479411	172
8	248	47.220101479411	152.10972247189
8	249	47.420101479411	132.21944494377
8	250	47.620101479411	112.32916741566
8	251	47.820101479411	92.438889887546
8	252	48.020101479411	72.548612359432
8	253	48.220101479411	52.658334831318
8	254	48.420101479411	32.768057303205
8	255	48.620101479411	12.877779775091
8	256	48.749589665354	0
8	257	48.949589665354	0
8	258	49.149589665354	0
8	259	49.349589665354	0
8	260	49.549589665354	0
8	261	49.749589665354	0
8	262	49.949589665354	0
8	263	50.149589665354	0
8	264	50.349589665354	0
8	265	50.549589665354	0
8	266	50.749589665354	0
8	267	50.814680539829	0
8	268	51.014680539829	14.286892147908
8	269	51.214680539829	28.573784295817
8	270	51.414680539829	42.860676443725
8	271	51.614680539829	57.147568591634
8	272	51.814680539829	71.434460739542
8	273	52.014680539829	85.721352887451
8	274	52.214680539829	100.00824503536
8	275	52.414680539829	114.29513718327
8	276	52.614680539829	128.58202933118
8	277	52.814680539829	142.86892147908
8	278	53.014680539829	157.15581362699
8	279	53.214680539829	171.4427057749
8	280	53.292476244697	177
8	281	53.492476244697	177
8	282	53.692476244697	177
8	283	53.892476244697	177
8	284	54.092476244697	177
8	285	54.292476244697	177
8	286	54.492476244697	177
8	287	54.692476244697	177
8	288	54.782101472311	177
8	289	54.982101472311	176.53545695336
8	290	55.182101472311	176.07091390671
8	291	55.382101472311	175.60637086007
8	292	55.582101472311	175.14182781342
8	293	55.782101472311	174.67728476678
8	294	55.982101472311	174.21274172014
8	295	56.182101472311	173.74819867349
8	296	56.382101472311	173.28365562685
8	297	56.582101472311	172.8191125802
8	298	56.782101472311	172.35456953356
8	299	56.934754508933	172
8	300	57.134754508933	172
8	301	57.334754508933	172
8	302	57.534754508933	172
8	303	57.734754508933	172
8	304	57.934754508933	172
8	305	58.134754508933	172
8	306	58.334754508933	172
8	307	58.534754508933	172
8	308	58.734754508933	172
8	309	58.863930154396	172
8	310	59.063930154396	172
8	311	59.263930154396	172
8	312	59.463930154396	172
8	313	59.663930154396	172
8	314	59.863930154396	172
8	315	60.063930154396	172
8	316	60.263930154396	172
8	317	60.463930154396	172
8	318	60.663930154396	172
8	319	60.863930154396	172
8	320	60.97906119498	172
8	321	61.17906119498	172
8	322	61.37906119498	172
8	323	61.57906119498	172
8	324	61.77906119498	172
8	325	61.97906119498	172
8	326	62.17906119498	172
8	327	62.37906119498	172
8	328	62.57906119498	172
8	329	62.77906119498	172
8	330	62.97906119498	172
8	331	63.17906119498	172
8	332	63.37906119498	172
8	333	63.407058713939	172
8	334	63.607058713939	172
8	335	63.807058713939	172
8	336	64.007058713939	172
8	337	64.207058713939	172
8	338	64.407058713939	172
8	339	64.607058713939	172
8	340	64.807058713939	172
8	341	65.007058713939	172
8	342	65.207058713939	172
8	343	65.363314782673	172
8	344	65.563314782673	172
8	345	65.763314782673	172
8	346	65.963314782673	172
8	347	66.163314782673	172
8	348	66.363314782673	172
8	349	66.563314782673	172
8	350	66.763314782673	172
8	351	66.963314782673	172
8	352	67.163314782673	172
8	353	67.363314782673	172
8	354	67.563314782673	172
8	355	67.763314782673	172
8	356	67.771982160726	172
8	357	67.971982160726	172
8	358	68.171982160726	172
8	359	68.371982160726	172
8	360	68.571982160726	172
8	361	68.771982160726	172
8	362	68.971982160726	172
8	363	69.171982160726	172
8	364	69.371982160726	172
8	365	69.571982160726	172
8	366	69.771982160726	172
8	367	69.891049336767	172
8	368	70.091049336767	172
8	369	70.291049336767	172
8	370	70.491049336767	172
8	371	70.691049336767	172
8	372	70.891049336767	172
8	373	71.091049336767	172
8	374	71.291049336767	172
8	375	71.367216893735	172
8	376	71.567216893735	179.91454759416
8	377	71.767216893735	187.82909518832
8	378	71.967216893735	195.74364278249
8	379	72.167216893735	203.65819037665
8	380	72.367216893735	211.57273797081
8	381	72.567216893735	219.48728556497
8	382	72.767216893735	227.40183315914
8	383	72.967216893735	235.3163807533
8	384	73.167216893735	243.23092834746
8	385	73.367216893735	251.14547594162
8	386	73.567216893735	259.06002353579
8	387	73.767216893735	266.97457112995
8	388	73.967216893735	274.88911872411
8	389	74.167216893735	282.80366631827
8	390	74.349067684222	290
8	391	74.549067684222	244.70254067799
8	392	74.749067684222	199.40508135598
8	393	74.949067684222	154.10762203398
8	394	75.149067684222	108.81016271197
8	395	75.349067684222	63.512703389959
8	396	75.549067684222	18.215244067951
8	397	75.629492698519	0
8	398	75.829492698519	0
8	399	76.029492698519	0
8	400	76.229492698519	0
8	401	76.429492698519	0
8	402	76.629492698519	0
8	403	76.829492698519	0
8	404	77.029492698519	0
8	405	77.229492698519	0
8	406	77.271688460908	0
8	407	77.471688460908	14.518835360036
8	408	77.671688460908	29.037670720071
8	409	77.871688460908	43.556506080107
8	410	78.071688460908	58.075341440143
8	411	78.271688460908	72.594176800179
8	412	78.471688460908	87.113012160214
8	413	78.671688460908	101.63184752025
8	414	78.871688460908	116.15068288029
8	415	79.071688460908	130.66951824032
8	416	79.271688460908	145.18835360036
8	417	79.471688460908	159.70718896039
8	418	79.671688460908	174.22602432043
8	419	79.709900557275	177
8	420	79.909900557275	177
8	421	80.109900557275	177
8	422	80.309900557275	177
8	423	80.509900557275	177
8	424	80.709900557275	177
8	425	80.909900557275	177
8	426	81.109900557275	177
8	427	81.309900557275	177
8	428	81.509900557275	177
8	429	81.709900557275	177
8	430	81.909900557275	177
8	431	82.109900557275	177
8	432	82.309900557275	177
8	433	82.337594274942	177
8	434	82.537594274942	177
8	435	82.737594274942	177
8	436	82.937594274942	177
8	437	83.137594274942	177
8	438	83.337594274942	177
8	439	83.537594274942	177
8	440	83.737594274942	177
8	441	83.937594274942	177
8	442	84.137594274942	177
8	443	84.337594274942	177
8	444	84.510664779109	177
8	445	84.710664779109	177
8	446	84.910664779109	177
8	447	85.110664779109	177
8	448	85.310664779109	177
8	449	85.510664779109	177
8	450	85.710664779109	177
8	451	85.910664779109	177
8	452	86.086882591286	177
8	453	86.286882591286	186.59555531674
8	454	86.486882591286	196.19111063348
8	455	86.686882591286	205.78666595022
8	456	86.886882591286	215.38222126696
8	457	87.086882591286	224.97777658371
8	458	87.286882591286	234.57333190045
8	459	87.486882591286	244.16888721719
8	460	87.686882591286	253.76444253393
8	461	87.886882591286	263.35999785067
8	462	88.086882591286	272.95555316741
8	463	88.286882591286	282.55110848415
8	464	88.442139713359	290
8	465	88.642139713359	290
8	466	88.842139713359	290
8	467	89.042139713359	290
8	468	89.242139713359	290
8	469	89.442139713359	290
8	470	89.642139713359	290
8	471	89.842139713359	290
8	472	90.042139713359	290
8	473	90.22617055492	290
8	474	90.42617055492	290
8	475	90.62617055492	290
8	476	90.82617055492	290
8	477	91.02617055492	290
8	478	91.22617055492	290
8	479	91.42617055492	290
8	480	91.62617055492	290
8	481	91.82617055492	290
8	482	92.02617055492	290
8	483	92.22617055492	290
8	484	92.227303112335	290
8	485	92.427303112335	290
8	486	92.627303112335	290
8	487	92.827303112335	290
8	488	93.027303112335	290
8	489	93.227303112335	290
8	490	93.427303112335	290
8	491	93.627303112335	290
8	492	93.827303112335	290
8	493	93.888152527499	290
8	494	94.088152527499	290
8	495	94.288152527499	290
8	496	94.488152527499	290
8	497	94.688152527499	290
8	498	94.888152527499	290
8	499	95.088152527499	290
8	500	95.288152527499	290
8	501	95.488152527499	290
8	502	95.67217784536	290
8	503	95.87217784536	290
8	504	96.07217784536	290
8	505	96.27217784536	290
8	506	96.47217784536	290
8	507	96.67217784536	290
8	508	96.87217784536	290
8	509	97.07217784536	290
8	510	97.27217784536	290
8	511	97.47217784536	290
8	512	97.67217784536	290
8	513	97.87217784536	290
8	514	98.07217784536	290
8	515	98.27217784536	290
8	516	98.303111574128	290
8	517	98.503111574128	290
8	518	98.703111574128	290
8	519	98.903111574128	290
8	520	99.103111574128	290
8	521	99.303111574128	290
8	522	99.503111574128	290
8	523	99.703111574128	290
8	524	99.903111574128	290
8	525	99.94597208869	290
8	526	100.14597208869	273.15436651906
8	527	100.34597208869	256.30873303812
8	528	100.54597208869	239.46309955718
8	529	100.74597208869	222.61746607624
8	530	100.94597208869	205.77183259529
8	531	101.14597208869	188.92619911435
8	532	101.34597208869	172.08056563341
8	533	101.54597208869	155.23493215247
8	534	101.74597208869	138.38929867153
8	535	101.94597208869	121.54366519059
8	536	102.14597208869	104.69803170965
8	537	102.34597208869	87.852398228706
8	538	102.54597208869	71.006764747764
8	539	102.74597208869	54.161131266823
8	540	102.94597208869	37.315497785882
8	541	103.14597208869	20.469864304941
8	542	103.34597208869	3.6242308239996
8	543	103.389000815726	0
8	544	103.589000815726	0
8	545	103.789000815726	0
8	546	103.989000815726	0
8	547	104.189000815726	0
8	548	104.389000815726	0
8	549	104.589000815726	0
8	550	104.789000815726	0
8	551	104.989000815726	0
8	552	105.189000815726	0
8	553	105.25595402553	0
8	554	105.45595402553	19.957763473303
8	555	105.65595402553	39.915526946605
8	556	105.85595402553	59.873290419908
8	557	106.05595402553	79.83105389321
8	558	106.25595402553	99.788817366513
8	559	106.45595402553	119.74658083982
8	560	106.65595402553	139.70434431312
8	561	106.85595402553	159.66210778642
8	562	107.029699868713	177
8	563	107.229699868713	177
8	564	107.429699868713	177
8	565	107.629699868713	177
8	566	107.829699868713	177
8	567	108.029699868713	177
8	568	108.229699868713	177
8	569	108.429699868713	177
8	570	108.629699868713	177
8	571	108.829699868713	177
8	572	109.029699868713	177
8	573	109.229699868713	177
8	574	109.326145606832	177
8	575	109.526145606832	176.26822252096
8	576	109.726145606832	175.53644504192
8	577	109.926145606832	174.80466756289
8	578	110.126145606832	174.07289008385
8	579	110.326145606832	173.34111260481
8	580	110.526145606832	172.60933512577
8	581	110.692681239105	172
8	582	110.892681239105	172
8	583	111.092681239105	172
8	584	111.292681239105	172
8	585	111.492681239105	172
8	586	111.692681239105	172
8	587	111.892681239105	172
8	588	112.092681239105	172
8	589	112.292681239105	172
8	590	112.364521168204	172
8	591	112.564521168204	172
8	592	112.764521168204	172
8	593	112.964521168204	172
8	594	113.164521168204	172
8	595	113.364521168204	172
8	596	113.564521168204	172
8	597	113.764521168204	172
8	598	113.811256406553	172
8	599	114.011256406553	180.88720801412
8	600	114.211256406553	189.77441602824
8	601	114.411256406553	198.66162404236
8	602	114.611256406553	207.54883205647
8	603	114.811256406553	216.43604007059
8	604	115.011256406553	225.32324808471
8	605	115.211256406553	234.21045609883
8	606	115.411256406553	243.09766411295
8	607	115.544084081514	249
8	608	115.744084081514	253.44330619555
8	609	115.944084081514	257.88661239109
8	610	116.144084081514	262.32991858664
8	611	116.344084081514	266.77322478218
8	612	116.544084081514	271.21653097773
8	613	116.744084081514	275.65983717328
8	614	116.944084081514	280.10314336882
8	615	117.144084081514	284.54644956437
8	616	117.344084081514	288.98975575991
8	617	117.389556718133	290
8	618	117.589556718133	290
8	619	117.789556718133	290
8	620	117.989556718133	290
8	621	118.189556718133	290
8	622	118.389556718133	290
8	623	118.589556718133	290
8	624	118.789556718133	290
8	625	118.989556718133	290
8	626	119.189556718133	290
8	627	119.279436817439	290
8	628	119.479436817439	290
8	629	119.679436817439	290
8	630	119.879436817439	290
8	631	120.079436817439	290
8	632	120.279436817439	290
8	633	120.479436817439	290
8	634	120.679436817439	290
8	635	120.879436817439	290
8	636	120.979959955225	290
8	637	121.179959955225	290
8	638	121.379959955225	290
8	639	121.579959955225	290
8	640	121.779959955225	290
8	641	121.979959955225	290
8	642	122.179959955225	290
8	643	122.379959955225	290
8	644	122.579959955225	290
8	645	122.779959955225	290
8	646	122.979959955225	290
8	647	123.028268476159	290
8	648	123.228268476159	290
8	649	123.428268476159	290
8	650	123.628268476159	290
8	651	123.828268476159	290
8	652	124.028268476159	290
8	653	124.228268476159	290
8	654	124.428268476159	290
8	655	124.628268476159	290
8	656	124.828268476159	290
8	657	125.028268476159	290
8	658	125.228268476159	290
8	659	125.342618065888	290
8	660	125.542618065888	256.84736236405
8	661	125.742618065888	223.6947247281
8	662	125.942618065888	190.54208709215
8	663	126.142618065888	157.3894494562
8	664	126.342618065888	124.23681182025
8	665	126.542618065888	91.084174184305
8	666	126.742618065888	57.931536548356
8	667	126.942618065888	24.778898912407
8	668	127.092101791343	0
8	669	127.292101791343	0
8	670	127.492101791343	0
8	671	127.692101791343	0
8	672	127.892101791343	0
8	673	128.092101791343	0
8	674	128.292101791343	0
8	675	128.492101791343	0
8	676	128.692101791343	0
8	677	128.892101791343	0
8	678	129.092101791343	0
8	679	129.292101791343	0
8	680	129.492101791343	0
8	681	129.692101791343	0
8	682	129.892101791343	0
8	683	130.016183103441	0
8	684	130.216183103441	19.259525736956
8	685	130.416183103441	38.519051473912
8	686	130.616183103441	57.778577210867
8	687	130.816183103441	77.038102947823
8	688	131.016183103441	96.297628684779
8	689	131.216183103441	115.55715442173
8	690	131.416183103441	134.81668015869
8	691	131.616183103441	154.07620589565
8	692	131.816183103441	173.3357316326
8	693	131.854234594609	177
8	694	132.054234594609	177
8	695	132.254234594609	177
8	696	132.454234594609	177
8	697	132.654234594609	177
8	698	132.854234594609	177
8	699	133.054234594609	177
8	700	133.254234594609	177
8	701	133.414034370623	177
8	702	133.614034370623	177
8	703	133.814034370623	177
8	704	134.014034370623	177
8	705	134.214034370623	177
8	706	134.414034370623	177
8	707	134.614034370623	177
8	708	134.814034370623	177
8	709	135.014034370623	177
8	710	135.214034370623	177
8	711	135.414034370623	177
8	712	135.614034370623	177
8	713	135.635312165537	177
8	714	135.835312165537	177
8	715	136.035312165537	177
8	716	136.235312165537	177
8	717	136.435312165537	177
8	718	136.635312165537	177
8	719	136.835312165537	177
8	720	137.035312165537	177
8	721	137.235312165537	177
8	722	137.435312165537	177
8	723	137.635312165537	177
8	724	137.835312165537	177
8	725	138.035312165537	177
8	726	138.235312165537	177
8	727	138.435312165537	177
8	728	138.622662264725	177
8	729	138.822662264725	177
8	730	139.022662264725	177
8	731	139.222662264725	177
8	732	139.422662264725	177
8	733	139.622662264725	177
8	734	139.822662264725	177
8	735	140.022662264725	177
8	736	140.061401599993	177
8	737	140.261401599993	177
8	738	140.461401599993	177
8	739	140.661401599993	177
8	740	140.861401599993	177
8	741	141.061401599993	177
8	742	141.261401599993	177
8	743	141.461401599993	177
8	744	141.661401599993	177
8	745	141.861401599993	177
8	746	142.061401599993	177
8	747	142.261401599993	177
8	748	142.461401599993	177
8	749	142.661401599993	177
8	750	142.861401599993	177
8	751	143.061401599993	177
8	752	143.261401599993	177
8	753	143.349703710404	177
8	754	143.549703710404	177
8	755	143.749703710404	177
8	756	143.949703710404	177
8	757	144.149703710404	177
8	758	144.349703710404	177
8	759	144.549703710404	177
8	760	144.700184013895	177
8	761	144.900184013895	182.1184090557
8	762	145.100184013895	187.23681811139
8	763	145.300184013895	192.35522716709
8	764	145.500184013895	197.47363622278
8	765	145.700184013895	202.59204527848
8	766	145.900184013895	207.71045433418
8	767	146.100184013895	212.82886338987
8	768	146.300184013895	217.94727244557
8	769	146.500184013895	223.06568150126
8	770	146.700184013895	228.18409055696
8	771	146.900184013895	233.30249961266
8	772	147.100184013895	238.42090866835
8	773	147.300184013895	243.53931772405
8	774	147.500184013895	248.65772677974
8	775	147.513558217345	249
8	776	147.713558217345	249
8	777	147.913558217345	249
8	778	148.113558217345	249
8	779	148.313558217345	249
8	780	148.513558217345	249
8	781	148.713558217345	249
8	782	148.913558217345	249
8	783	149.113558217345	249
8	784	149.313558217345	249
8	785	149.381555044876	249
8	786	149.581555044876	249
8	787	149.781555044876	249
8	788	149.981555044876	249
8	789	150.181555044876	249
8	790	150.381555044876	249
8	791	150.581555044876	249
8	792	150.781555044876	249
8	793	150.981555044876	249
8	794	151.181555044876	249
8	795	151.381555044876	249
8	796	151.581555044876	249
8	797	151.781555044876	249
8	798	151.7858889256	249
8	799	151.9858889256	261.28668975909
8	800	152.1858889256	273.57337951817
8	801	152.3858889256	285.86006927726
8	802	152.5858889256	298.14675903635
8	803	152.7858889256	310.43344879543
8	804	152.9858889256	322.72013855452
8	805	153.1858889256	335.00682831361
8	806	153.3858889256	347.29351807269
8	807	153.5858889256	359.58020783178
8	808	153.625277763695	362
8	809	153.825277763695	362
8	810	154.025277763695	362
8	811	154.225277763695	362
8	812	154.425277763695	362
8	813	154.625277763695	362
8	814	154.825277763695	362
8	815	155.025277763695	362
8	816	155.209261386894	362
8	817	155.409261386894	324.00464790839
8	818	155.609261386894	286.00929581677
8	819	155.809261386894	248.01394372516
8	820	156.009261386894	210.01859163355
8	821	156.209261386894	172.02323954193
8	822	156.409261386894	134.02788745032
8	823	156.609261386894	96.032535358708
8	824	156.809261386894	58.037183267095
8	825	157.009261386894	20.041831175482
8	826	157.11475761247	0
8	827	157.31475761247	0
8	828	157.51475761247	0
8	829	157.71475761247	0
8	830	157.91475761247	0
8	831	158.11475761247	0
8	832	158.31475761247	0
8	833	158.51475761247	0
8	834	158.71475761247	0
8	835	158.91475761247	0
8	836	159.11475761247	0
8	837	159.31475761247	0
8	838	159.434528869805	0
8	839	159.634528869805	14.038579268702
8	840	159.834528869805	28.077158537404
8	841	160.034528869805	42.115737806105
8	842	160.234528869805	56.154317074807
8	843	160.434528869805	70.192896343509
8	844	160.634528869805	84.231475612211
8	845	160.834528869805	98.270054880912
8	846	161.034528869805	112.30863414961
8	847	161.234528869805	126.34721341832
8	848	161.434528869805	140.38579268702
8	849	161.634528869805	154.42437195572
8	850	161.834528869805	168.46295122442
8	851	161.884919279089	172
8	852	162.084919279089	172
8	853	162.284919279089	172
8	854	162.484919279089	172
8	855	162.684919279089	172
8	856	162.884919279089	172
8	857	163.084919279089	172
8	858	163.284919279089	172
8	859	163.484919279089	172
8	860	163.684919279089	172
8	861	163.884919279089	172
8	862	163.922599332894	172
8	863	164.122599332894	172
8	864	164.322599332894	172
8	865	164.522599332894	172
8	866	164.722599332894	172
8	867	164.922599332894	172
8	868	165.122599332894	172
8	869	165.218263135526	172
8	870	165.418263135526	172
8	871	165.618263135526	172
8	872	165.818263135526	172
8	873	166.018263135526	172